 Entering Gaussian System, Link 0=g09
 Input=ethylene-anion.com
 Output=ethylene-anion.log
 Initial command:
 /home/beto/gaussian09/g09/l1.exe /home/beto/gaussian09/scratch/Gau-99776.inp -scrdir=/home/beto/gaussian09/scratch/
 Entering Link 1 = /home/beto/gaussian09/g09/l1.exe PID=     99778.
  
 Copyright (c) 1988,1990,1992,1993,1995,1998,2003,2009,2011,
            Gaussian, Inc.  All Rights Reserved.
  
 This is part of the Gaussian(R) 09 program.  It is based on
 the Gaussian(R) 03 system (copyright 2003, Gaussian, Inc.),
 the Gaussian(R) 98 system (copyright 1998, Gaussian, Inc.),
 the Gaussian(R) 94 system (copyright 1995, Gaussian, Inc.),
 the Gaussian 92(TM) system (copyright 1992, Gaussian, Inc.),
 the Gaussian 90(TM) system (copyright 1990, Gaussian, Inc.),
 the Gaussian 88(TM) system (copyright 1988, Gaussian, Inc.),
 the Gaussian 86(TM) system (copyright 1986, Carnegie Mellon
 University), and the Gaussian 82(TM) system (copyright 1983,
 Carnegie Mellon University). Gaussian is a federally registered
 trademark of Gaussian, Inc.
  
 This software contains proprietary and confidential information,
 including trade secrets, belonging to Gaussian, Inc.
  
 This software is provided under written license and may be
 used, copied, transmitted, or stored only in accord with that
 written license.
  
 The following legend is applicable only to US Government
 contracts under FAR:
  
                    RESTRICTED RIGHTS LEGEND
  
 Use, reproduction and disclosure by the US Government is
 subject to restrictions as set forth in subparagraphs (a)
 and (c) of the Commercial Computer Software - Restricted
 Rights clause in FAR 52.227-19.
  
 Gaussian, Inc.
 340 Quinnipiac St., Bldg. 40, Wallingford CT 06492
  
  
 ---------------------------------------------------------------
 Warning -- This program may not be used in any manner that
 competes with the business of Gaussian, Inc. or will provide
 assistance to any competitor of Gaussian, Inc.  The licensee
 of this program is prohibited from giving any competitor of
 Gaussian, Inc. access to this program.  By using this program,
 the user acknowledges that Gaussian, Inc. is engaged in the
 business of creating and licensing software in the field of
 computational chemistry and represents and warrants to the
 licensee that it is not a competitor of Gaussian, Inc. and that
 it will not use this program in any manner prohibited above.
 ---------------------------------------------------------------
  

 Cite this work as:
 Gaussian 09, Revision C.01,
 M. J. Frisch, G. W. Trucks, H. B. Schlegel, G. E. Scuseria, 
 M. A. Robb, J. R. Cheeseman, G. Scalmani, V. Barone, B. Mennucci, 
 G. A. Petersson, H. Nakatsuji, M. Caricato, X. Li, H. P. Hratchian, 
 A. F. Izmaylov, J. Bloino, G. Zheng, J. L. Sonnenberg, M. Hada, 
 M. Ehara, K. Toyota, R. Fukuda, J. Hasegawa, M. Ishida, T. Nakajima, 
 Y. Honda, O. Kitao, H. Nakai, T. Vreven, J. A. Montgomery, Jr., 
 J. E. Peralta, F. Ogliaro, M. Bearpark, J. J. Heyd, E. Brothers, 
 K. N. Kudin, V. N. Staroverov, T. Keith, R. Kobayashi, J. Normand, 
 K. Raghavachari, A. Rendell, J. C. Burant, S. S. Iyengar, J. Tomasi, 
 M. Cossi, N. Rega, J. M. Millam, M. Klene, J. E. Knox, J. B. Cross, 
 V. Bakken, C. Adamo, J. Jaramillo, R. Gomperts, R. E. Stratmann, 
 O. Yazyev, A. J. Austin, R. Cammi, C. Pomelli, J. W. Ochterski, 
 R. L. Martin, K. Morokuma, V. G. Zakrzewski, G. A. Voth, 
 P. Salvador, J. J. Dannenberg, S. Dapprich, A. D. Daniels, 
 O. Farkas, J. B. Foresman, J. V. Ortiz, J. Cioslowski, 
 and D. J. Fox, Gaussian, Inc., Wallingford CT, 2010.
 
 ******************************************
 Gaussian 09:  EM64L-G09RevC.01 23-Sep-2011
                 9-Apr-2021 
 ******************************************
 %NProcShared=4
 Will use up to    4 processors via shared memory.
 %Mem=2GB
 %oldchk=ethylene-neutral
 %chk=ethylene-anion
 Copying data from "ethylene-neutral.chk" to current chk file "ethylene-anion.chk".
 ---------------------------------------------
 # opt B3LYP/6-31G* freq=noraman int=ultrafine
 ---------------------------------------------
 1/14=-1,18=20,19=15,26=3,38=1/1,3;
 2/9=110,12=2,17=6,18=5,40=1/2;
 3/5=1,6=6,7=1,11=2,16=1,25=1,30=1,71=1,74=-5,75=-5/1,2,3;
 4//1;
 5/5=2,38=5/2;
 6/7=2,8=2,9=2,10=2,28=1/1;
 7//1,2,3,16;
 1/14=-1,18=20,19=15/3(2);
 2/9=110/2;
 99//99;
 2/9=110/2;
 3/5=1,6=6,7=1,11=2,16=1,25=1,30=1,71=1,74=-5,75=-5/1,2,3;
 4/5=5,16=3/1;
 5/5=2,38=5/2;
 7//1,2,3,16;
 1/14=-1,18=20,19=15/3(-5);
 2/9=110/2;
 6/7=2,8=2,9=2,10=2,19=2,28=1/1;
 99/9=1/99;
 --------------
 ethylene anion
 --------------
 Charge = -1 Multiplicity = 2
 Symbolic Z-Matrix:
 C                     0.67275   0.        0. 
 C                    -0.67275   0.        0. 
 H                     1.24262   0.93481   0. 
 H                     1.24262  -0.93481   0. 
 H                    -1.24262   0.93481   0. 
 H                    -1.24262  -0.93481   0. 
 

 GradGradGradGradGradGradGradGradGradGradGradGradGradGradGradGradGradGrad
 Berny optimization.
 Initialization pass.
                           ----------------------------
                           !    Initial Parameters    !
                           ! (Angstroms and Degrees)  !
 --------------------------                            --------------------------
 ! Name  Definition              Value          Derivative Info.                !
 --------------------------------------------------------------------------------
 ! R1    R(1,2)                  1.3455         estimate D2E/DX2                !
 ! R2    R(1,3)                  1.0948         estimate D2E/DX2                !
 ! R3    R(1,4)                  1.0948         estimate D2E/DX2                !
 ! R4    R(2,5)                  1.0948         estimate D2E/DX2                !
 ! R5    R(2,6)                  1.0948         estimate D2E/DX2                !
 ! A1    A(2,1,3)              121.3672         estimate D2E/DX2                !
 ! A2    A(2,1,4)              121.3672         estimate D2E/DX2                !
 ! A3    A(3,1,4)              117.2656         estimate D2E/DX2                !
 ! A4    A(1,2,5)              121.3672         estimate D2E/DX2                !
 ! A5    A(1,2,6)              121.3672         estimate D2E/DX2                !
 ! A6    A(5,2,6)              117.2656         estimate D2E/DX2                !
 ! D1    D(3,1,2,5)              0.0            estimate D2E/DX2                !
 ! D2    D(3,1,2,6)            180.0            estimate D2E/DX2                !
 ! D3    D(4,1,2,5)            180.0            estimate D2E/DX2                !
 ! D4    D(4,1,2,6)              0.0            estimate D2E/DX2                !
 --------------------------------------------------------------------------------
 Trust Radius=3.00D-01 FncErr=1.00D-07 GrdErr=1.00D-06
 Number of steps in this run=     25 maximum allowed number of steps=    100.
 GradGradGradGradGradGradGradGradGradGradGradGradGradGradGradGradGradGrad

                          Input orientation:                          
 ---------------------------------------------------------------------
 Center     Atomic      Atomic             Coordinates (Angstroms)
 Number     Number       Type             X           Y           Z
 ---------------------------------------------------------------------
      1          6           0        0.672749    0.000000    0.000000
      2          6           0       -0.672749    0.000000    0.000000
      3          1           0        1.242623    0.934806    0.000000
      4          1           0        1.242623   -0.934806    0.000000
      5          1           0       -1.242623    0.934806    0.000000
      6          1           0       -1.242623   -0.934806    0.000000
 ---------------------------------------------------------------------
                    Distance matrix (angstroms):
                    1          2          3          4          5
     1  C    0.000000
     2  C    1.345498   0.000000
     3  H    1.094814   2.131317   0.000000
     4  H    1.094814   2.131317   1.869612   0.000000
     5  H    2.131317   1.094814   2.485246   3.109967   0.000000
     6  H    2.131317   1.094814   3.109967   2.485246   1.869612
                    6
     6  H    0.000000
 Stoichiometry    C2H4(1-,2)
 Framework group  D2H[C2"(C.C),SG(H4)]
 Deg. of freedom     3
 Full point group                 D2H     NOp   8
 Largest Abelian subgroup         D2H     NOp   8
 Largest concise Abelian subgroup D2      NOp   4
                         Standard orientation:                         
 ---------------------------------------------------------------------
 Center     Atomic      Atomic             Coordinates (Angstroms)
 Number     Number       Type             X           Y           Z
 ---------------------------------------------------------------------
      1          6           0        0.000000    0.000000    0.672749
      2          6           0        0.000000    0.000000   -0.672749
      3          1           0        0.000000    0.934806    1.242623
      4          1           0        0.000000   -0.934806    1.242623
      5          1           0        0.000000    0.934806   -1.242623
      6          1           0        0.000000   -0.934806   -1.242623
 ---------------------------------------------------------------------
 Rotational constants (GHZ):    143.4594228     29.5768688     24.5213330
 Standard basis: 6-31G(d) (6D, 7F)
 There are    10 symmetry adapted basis functions of AG  symmetry.
 There are     1 symmetry adapted basis functions of B1G symmetry.
 There are     3 symmetry adapted basis functions of B2G symmetry.
 There are     5 symmetry adapted basis functions of B3G symmetry.
 There are     1 symmetry adapted basis functions of AU  symmetry.
 There are    10 symmetry adapted basis functions of B1U symmetry.
 There are     5 symmetry adapted basis functions of B2U symmetry.
 There are     3 symmetry adapted basis functions of B3U symmetry.
 Integral buffers will be    131072 words long.
 Raffenetti 2 integral format.
 Two-electron integral symmetry is turned on.
    38 basis functions,    72 primitive gaussians,    38 cartesian basis functions
     9 alpha electrons        8 beta electrons
       nuclear repulsion energy        33.0501025730 Hartrees.
 NAtoms=    6 NActive=    6 NUniq=    2 SFac= 4.00D+00 NAtFMM=   60 NAOKFM=F Big=F
 One-electron integrals computed using PRISM.
 NBasis=    38 RedAO= T  NBF=    10     1     3     5     1    10     5     3
 NBsUse=    38 1.00D-06 NBFU=    10     1     3     5     1    10     5     3
 Harris functional with IExCor=  402 diagonalized for initial guess.
 ExpMin= 1.61D-01 ExpMax= 3.05D+03 ExpMxC= 4.57D+02 IAcc=3 IRadAn=         5 AccDes= 0.00D+00
 HarFok:  IExCor=  402 AccDes= 0.00D+00 IRadAn=         5 IDoV= 1
 ScaDFX=  1.000000  1.000000  1.000000  1.000000
 FoFCou: FMM=F IPFlag=           0 FMFlag=      100000 FMFlg1=           0
         NFxFlg=           0 DoJE=T BraDBF=F KetDBF=T FulRan=T
         Omega=  0.000000  0.000000  1.000000  0.000000  0.000000 ICntrl=     500 IOpCl=  0
         NMat0=    1 NMatS0=    1 NMatT0=    0 NMatD0=    1 NMtDS0=    0 NMtDT0=    0
         I1Cent=           4 NGrid=           0.
 Petite list used in FoFCou.
 Initial guess orbital symmetries:
 Alpha Orbitals:
       Occupied  (AG) (B1U) (AG) (B1U) (B2U) (AG) (B3G) (B3U) (B2G)
       Virtual   (B2U) (AG) (B1U) (B3G) (B1U) (AG) (B3U) (B2U)
                 (B2G) (B1U) (AG) (B2U) (B3G) (B1U) (AG) (B1U)
                 (B3G) (B3U) (B1G) (AU) (AG) (B2U) (AG) (B1U) (B2G)
                 (B3G) (B1U) (AG) (B1U)
 Beta  Orbitals:
       Occupied  (AG) (B1U) (AG) (B1U) (B2U) (AG) (B3G) (B3U)
       Virtual   (B2G) (B2U) (AG) (B1U) (B3G) (B1U) (AG) (B3U)
                 (B2U) (B2G) (B1U) (AG) (B2U) (B3G) (B1U) (AG)
                 (B1U) (B3G) (B3U) (B1G) (AU) (AG) (B2U) (AG) (B1U)
                 (B2G) (B3G) (B1U) (AG) (B1U)
 The electronic state of the initial guess is 2-B2G.
 Initial guess <Sx>= 0.0000 <Sy>= 0.0000 <Sz>= 0.5000 <S**2>= 0.7500 S= 0.5000
 Requested convergence on RMS density matrix=1.00D-08 within 128 cycles.
 Requested convergence on MAX density matrix=1.00D-06.
 Requested convergence on             energy=1.00D-06.
 No special actions if energy rises.
 Keep R1 and R2 ints in memory in canonical form, NReq=1567397.
 Integral accuracy reduced to 1.0D-05 until final iterations.
 Initial convergence to 1.0D-05 achieved.  Increase integral accuracy.
 SCF Done:  E(UB3LYP) =  -78.4674811795     A.U. after   12 cycles
             Convg  =    0.2493D-08             -V/T =  2.0055
 <Sx>= 0.0000 <Sy>= 0.0000 <Sz>= 0.5000 <S**2>= 0.7529 S= 0.5015
 <L.S>= 0.000000000000E+00
 Annihilation of the first spin contaminant:
 S**2 before annihilation     0.7529,   after     0.7500

 **********************************************************************

            Population analysis using the SCF density.

 **********************************************************************

 Orbital symmetries:
 Alpha Orbitals:
       Occupied  (AG) (B1U) (AG) (B1U) (B2U) (AG) (B3G) (B3U) (B2G)
       Virtual   (AG) (B2U) (B1U) (B3G) (B1U) (AG) (B3U) (B2U)
                 (B2G) (AG) (B1U) (B2U) (B3G) (B1U) (AG) (B1U)
                 (B3G) (B3U) (B1G) (AU) (AG) (B2U) (AG) (B1U) (B2G)
                 (B3G) (B1U) (AG) (B1U)
 Beta  Orbitals:
       Occupied  (AG) (B1U) (AG) (B1U) (B2U) (AG) (B3G) (B3U)
       Virtual   (B2G) (AG) (B2U) (B1U) (B3G) (B1U) (AG) (B2U)
                 (B3U) (AG) (B2G) (B1U) (B2U) (B3G) (B1U) (AG)
                 (B1U) (B3G) (B3U) (B1G) (AU) (AG) (B2U) (AG) (B1U)
                 (B2G) (B3G) (B1U) (AG) (B1U)
 The electronic state is 2-B2G.
 Alpha  occ. eigenvalues --   -9.86188  -9.86114  -0.45029  -0.29066  -0.17477
 Alpha  occ. eigenvalues --   -0.11338  -0.07306   0.01367   0.22385
 Alpha virt. eigenvalues --    0.35642   0.38441   0.38791   0.47332   0.58602
 Alpha virt. eigenvalues --    0.75448   0.82060   0.84441   0.89447   0.92620
 Alpha virt. eigenvalues --    0.97208   1.11608   1.14228   1.19312   1.20169
 Alpha virt. eigenvalues --    1.36986   1.48503   1.76375   1.85237   2.12607
 Alpha virt. eigenvalues --    2.18749   2.27208   2.37962   2.57108   2.67447
 Alpha virt. eigenvalues --    2.97093   2.99709   4.39465   4.54940
  Beta  occ. eigenvalues --   -9.85533  -9.85454  -0.43338  -0.27056  -0.16976
  Beta  occ. eigenvalues --   -0.10764  -0.06919   0.06490
  Beta virt. eigenvalues --    0.33940   0.36427   0.38577   0.39734   0.47640
  Beta virt. eigenvalues --    0.59345   0.75880   0.84537   0.85175   0.93721
  Beta virt. eigenvalues --    0.93927   0.99243   1.11771   1.14819   1.20122
  Beta virt. eigenvalues --    1.21279   1.39116   1.49129   1.79728   1.88356
  Beta virt. eigenvalues --    2.16328   2.21814   2.27715   2.39242   2.60066
  Beta virt. eigenvalues --    2.71127   2.97795   3.01082   4.41134   4.56772
          Condensed to atoms (all electrons):
              1          2          3          4          5          6
     1  C    5.408052   0.389071   0.348971   0.348971  -0.034883  -0.034883
     2  C    0.389071   5.408052  -0.034883  -0.034883   0.348971   0.348971
     3  H    0.348971  -0.034883   0.805634  -0.075383  -0.016366   0.009380
     4  H    0.348971  -0.034883  -0.075383   0.805634   0.009380  -0.016366
     5  H   -0.034883   0.348971  -0.016366   0.009380   0.805634  -0.075383
     6  H   -0.034883   0.348971   0.009380  -0.016366  -0.075383   0.805634
 Mulliken atomic charges:
              1
     1  C   -0.425297
     2  C   -0.425297
     3  H   -0.037351
     4  H   -0.037351
     5  H   -0.037351
     6  H   -0.037351
 Sum of Mulliken atomic charges =  -1.00000
 Mulliken charges with hydrogens summed into heavy atoms:
              1
     1  C   -0.500000
     2  C   -0.500000
 Sum of Mulliken charges with hydrogens summed into heavy atoms =  -1.00000
          Atomic-Atomic Spin Densities.
              1          2          3          4          5          6
     1  C    0.966918  -0.405752   0.007100   0.007100  -0.002692  -0.002692
     2  C   -0.405752   0.966918  -0.002692  -0.002692   0.007100   0.007100
     3  H    0.007100  -0.002692  -0.040767   0.000669   0.001195  -0.000495
     4  H    0.007100  -0.002692   0.000669  -0.040767  -0.000495   0.001195
     5  H   -0.002692   0.007100   0.001195  -0.000495  -0.040767   0.000669
     6  H   -0.002692   0.007100  -0.000495   0.001195   0.000669  -0.040767
 Mulliken atomic spin densities:
              1
     1  C    0.569982
     2  C    0.569982
     3  H   -0.034991
     4  H   -0.034991
     5  H   -0.034991
     6  H   -0.034991
 Sum of Mulliken atomic spin densities =   1.00000
 Electronic spatial extent (au):  <R**2>=             95.4734
 Charge=             -1.0000 electrons
 Dipole moment (field-independent basis, Debye):
    X=              0.0000    Y=              0.0000    Z=              0.0000  Tot=              0.0000
 Quadrupole moment (field-independent basis, Debye-Ang):
   XX=            -19.4065   YY=            -16.1529   ZZ=            -20.3127
   XY=              0.0000   XZ=              0.0000   YZ=              0.0000
 Traceless Quadrupole moment (field-independent basis, Debye-Ang):
   XX=             -0.7825   YY=              2.4711   ZZ=             -1.6887
   XY=              0.0000   XZ=              0.0000   YZ=              0.0000
 Octapole moment (field-independent basis, Debye-Ang**2):
  XXX=              0.0000  YYY=              0.0000  ZZZ=              0.0000  XYY=              0.0000
  XXY=              0.0000  XXZ=              0.0000  XZZ=              0.0000  YZZ=              0.0000
  YYZ=              0.0000  XYZ=              0.0000
 Hexadecapole moment (field-independent basis, Debye-Ang**3):
 XXXX=            -22.9658 YYYY=            -36.7463 ZZZZ=            -93.2059 XXXY=              0.0000
 XXXZ=              0.0000 YYYX=              0.0000 YYYZ=              0.0000 ZZZX=              0.0000
 ZZZY=              0.0000 XXYY=            -10.0958 XXZZ=            -20.9643 YYZZ=            -21.9153
 XXYZ=              0.0000 YYXZ=              0.0000 ZZXY=              0.0000
 N-N= 3.305010257302D+01 E-N=-3.747947682481D+02  KE= 1.163977406101D+02
 Symmetry AG   KE= 5.566594627627D+01
 Symmetry B1G  KE= 4.908417019958D-34
 Symmetry B2G  KE= 1.190147033707D+00
 Symmetry B3G  KE= 2.863072461561D+00
 Symmetry AU   KE= 5.486332858355D-34
 Symmetry B1U  KE= 5.121842744106D+01
 Symmetry B2U  KE= 2.580180731771D+00
 Symmetry B3U  KE= 2.879966665702D+00
                          Isotropic Fermi Contact Couplings
        Atom                 a.u.       MegaHertz       Gauss      10(-4) cm-1
     1  C(13)              0.04862      54.66136      19.50453      18.23307
     2  C(13)              0.04862      54.66136      19.50453      18.23307
     3  H(1)              -0.00867     -38.74506     -13.82520     -12.92396
     4  H(1)              -0.00867     -38.74506     -13.82520     -12.92396
     5  H(1)              -0.00867     -38.74506     -13.82520     -12.92396
     6  H(1)              -0.00867     -38.74506     -13.82520     -12.92396
 --------------------------------------------------------
       Center         ----  Spin Dipole Couplings  ----
                      3XX-RR        3YY-RR        3ZZ-RR
 --------------------------------------------------------
     1   Atom        0.544553     -0.282565     -0.261988
     2   Atom        0.544553     -0.282565     -0.261988
     3   Atom        0.000785      0.019997     -0.020781
     4   Atom        0.000785      0.019997     -0.020781
     5   Atom        0.000785      0.019997     -0.020781
     6   Atom        0.000785      0.019997     -0.020781
 --------------------------------------------------------
                        XY            XZ            YZ
 --------------------------------------------------------
     1   Atom        0.000000      0.000000      0.000000
     2   Atom        0.000000      0.000000      0.000000
     3   Atom        0.000000      0.000000      0.035749
     4   Atom        0.000000      0.000000     -0.035749
     5   Atom        0.000000      0.000000     -0.035749
     6   Atom        0.000000      0.000000      0.035749
 --------------------------------------------------------


 ---------------------------------------------------------------------------------
              Anisotropic Spin Dipole Couplings in Principal Axis System
 ---------------------------------------------------------------------------------

       Atom             a.u.   MegaHertz   Gauss  10(-4) cm-1        Axes

              Baa    -0.2826   -37.918   -13.530   -12.648  0.0000  1.0000  0.0000
     1 C(13)  Bbb    -0.2620   -35.156   -12.545   -11.727  0.0000  0.0000  1.0000
              Bcc     0.5446    73.074    26.075    24.375  1.0000  0.0000  0.0000
 
              Baa    -0.2826   -37.918   -13.530   -12.648  0.0000  1.0000  0.0000
     2 C(13)  Bbb    -0.2620   -35.156   -12.545   -11.727  0.0000  0.0000  1.0000
              Bcc     0.5446    73.074    26.075    24.375  1.0000  0.0000  0.0000
 
              Baa    -0.0415   -22.168    -7.910    -7.394  0.0000 -0.5023  0.8647
     3 H(1)   Bbb     0.0008     0.419     0.149     0.140  1.0000  0.0000  0.0000
              Bcc     0.0408    21.749     7.761     7.255  0.0000  0.8647  0.5023
 
              Baa    -0.0415   -22.168    -7.910    -7.394  0.0000  0.5023  0.8647
     4 H(1)   Bbb     0.0008     0.419     0.149     0.140  1.0000  0.0000  0.0000
              Bcc     0.0408    21.749     7.761     7.255  0.0000  0.8647 -0.5023
 
              Baa    -0.0415   -22.168    -7.910    -7.394  0.0000  0.5023  0.8647
     5 H(1)   Bbb     0.0008     0.419     0.149     0.140  1.0000  0.0000  0.0000
              Bcc     0.0408    21.749     7.761     7.255  0.0000  0.8647 -0.5023
 
              Baa    -0.0415   -22.168    -7.910    -7.394  0.0000 -0.5023  0.8647
     6 H(1)   Bbb     0.0008     0.419     0.149     0.140  1.0000  0.0000  0.0000
              Bcc     0.0408    21.749     7.761     7.255  0.0000  0.8647  0.5023
 

 ---------------------------------------------------------------------------------

 Calling FoFJK, ICntrl=      2127 FMM=F ISym2X=1 I1Cent= 0 IOpClX= 1 NMat=1 NMatS=1 NMatT=0.
 ***** Axes restored to original set *****
 -------------------------------------------------------------------
 Center     Atomic                   Forces (Hartrees/Bohr)
 Number     Number              X              Y              Z
 -------------------------------------------------------------------
      1        6           0.093546861    0.000000000    0.000000000
      2        6          -0.093546861    0.000000000    0.000000000
      3        1           0.003388619   -0.003088136    0.000000000
      4        1           0.003388619    0.003088136    0.000000000
      5        1          -0.003388619   -0.003088136    0.000000000
      6        1          -0.003388619    0.003088136    0.000000000
 -------------------------------------------------------------------
 Cartesian Forces:  Max     0.093546861 RMS     0.031257095

 GradGradGradGradGradGradGradGradGradGradGradGradGradGradGradGradGradGrad
 Berny optimization.
 Internal  Forces:  Max     0.100324099 RMS     0.026055817
 Search for a local minimum.
 Step number   1 out of a maximum of   25
 All quantities printed in internal units (Hartrees-Bohrs-Radians)
 Mixed Optimization -- RFO/linear search
 Second derivative matrix not updated -- first step.
 The second derivative matrix:
                          R1        R2        R3        R4        R5
           R1           0.55990
           R2           0.00000   0.34262
           R3           0.00000   0.00000   0.34262
           R4           0.00000   0.00000   0.00000   0.34262
           R5           0.00000   0.00000   0.00000   0.00000   0.34262
           A1           0.00000   0.00000   0.00000   0.00000   0.00000
           A2           0.00000   0.00000   0.00000   0.00000   0.00000
           A3           0.00000   0.00000   0.00000   0.00000   0.00000
           A4           0.00000   0.00000   0.00000   0.00000   0.00000
           A5           0.00000   0.00000   0.00000   0.00000   0.00000
           A6           0.00000   0.00000   0.00000   0.00000   0.00000
           D1           0.00000   0.00000   0.00000   0.00000   0.00000
           D2           0.00000   0.00000   0.00000   0.00000   0.00000
           D3           0.00000   0.00000   0.00000   0.00000   0.00000
           D4           0.00000   0.00000   0.00000   0.00000   0.00000
                          A1        A2        A3        A4        A5
           A1           0.16000
           A2           0.00000   0.16000
           A3           0.00000   0.00000   0.16000
           A4           0.00000   0.00000   0.00000   0.16000
           A5           0.00000   0.00000   0.00000   0.00000   0.16000
           A6           0.00000   0.00000   0.00000   0.00000   0.00000
           D1           0.00000   0.00000   0.00000   0.00000   0.00000
           D2           0.00000   0.00000   0.00000   0.00000   0.00000
           D3           0.00000   0.00000   0.00000   0.00000   0.00000
           D4           0.00000   0.00000   0.00000   0.00000   0.00000
                          A6        D1        D2        D3        D4
           A6           0.16000
           D1           0.00000   0.02810
           D2           0.00000   0.00000   0.02810
           D3           0.00000   0.00000   0.00000   0.02810
           D4           0.00000   0.00000   0.00000   0.00000   0.02810
 ITU=  0
     Eigenvalues ---    0.02810   0.02810   0.02810   0.16000   0.16000
     Eigenvalues ---    0.16000   0.16000   0.34262   0.34262   0.34262
     Eigenvalues ---    0.34262   0.55990
 RFO step:  Lambda=-1.80717788D-02 EMin= 2.80971271D-02
 Linear search not attempted -- first point.
 Iteration  1 RMS(Cart)=  0.06875982 RMS(Int)=  0.00016332
 Iteration  2 RMS(Cart)=  0.00016260 RMS(Int)=  0.00000000
 Iteration  3 RMS(Cart)=  0.00000000 RMS(Int)=  0.00000000
 ClnCor:  largest displacement from symmetrization is 4.45D-14 for atom     2.
 Variable       Old X    -DE/DX   Delta X   Delta X   Delta X     New X
                                 (Linear)    (Quad)   (Total)
    R1        2.54262   0.10032   0.00000   0.17358   0.17358   2.71620
    R2        2.06890  -0.00087   0.00000  -0.00242  -0.00242   2.06648
    R3        2.06890  -0.00087   0.00000  -0.00242  -0.00242   2.06648
    R4        2.06890  -0.00087   0.00000  -0.00242  -0.00242   2.06648
    R5        2.06890  -0.00087   0.00000  -0.00242  -0.00242   2.06648
    A1        2.11826   0.00310   0.00000   0.01743   0.01743   2.13569
    A2        2.11826   0.00310   0.00000   0.01743   0.01743   2.13569
    A3        2.04667  -0.00621   0.00000  -0.03486  -0.03486   2.01181
    A4        2.11826   0.00310   0.00000   0.01743   0.01743   2.13569
    A5        2.11826   0.00310   0.00000   0.01743   0.01743   2.13569
    A6        2.04667  -0.00621   0.00000  -0.03486  -0.03486   2.01181
    D1        0.00000   0.00000   0.00000   0.00000   0.00000   0.00000
    D2        3.14159   0.00000   0.00000   0.00000   0.00000   3.14159
    D3        3.14159   0.00000   0.00000   0.00000   0.00000   3.14159
    D4        0.00000   0.00000   0.00000   0.00000   0.00000   0.00000
         Item               Value     Threshold  Converged?
 Maximum Force            0.100324     0.000450     NO 
 RMS     Force            0.026056     0.000300     NO 
 Maximum Displacement     0.116120     0.001800     NO 
 RMS     Displacement     0.068692     0.001200     NO 
 Predicted change in Energy=-9.341291D-03
 GradGradGradGradGradGradGradGradGradGradGradGradGradGradGradGradGradGrad

                          Input orientation:                          
 ---------------------------------------------------------------------
 Center     Atomic      Atomic             Coordinates (Angstroms)
 Number     Number       Type             X           Y           Z
 ---------------------------------------------------------------------
      1          6           0        0.718676    0.000000    0.000000
      2          6           0       -0.718676    0.000000    0.000000
      3          1           0        1.304071    0.923649    0.000000
      4          1           0        1.304071   -0.923649    0.000000
      5          1           0       -1.304071    0.923649    0.000000
      6          1           0       -1.304071   -0.923649    0.000000
 ---------------------------------------------------------------------
                    Distance matrix (angstroms):
                    1          2          3          4          5
     1  C    0.000000
     2  C    1.437352   0.000000
     3  H    1.093534   2.223653   0.000000
     4  H    1.093534   2.223653   1.847299   0.000000
     5  H    2.223653   1.093534   2.608142   3.196079   0.000000
     6  H    2.223653   1.093534   3.196079   2.608142   1.847299
                    6
     6  H    0.000000
 Stoichiometry    C2H4(1-,2)
 Framework group  D2H[C2"(C.C),SG(H4)]
 Deg. of freedom     3
 Full point group                 D2H     NOp   8
 Largest Abelian subgroup         D2H     NOp   8
 Largest concise Abelian subgroup D2      NOp   4
                         Standard orientation:                         
 ---------------------------------------------------------------------
 Center     Atomic      Atomic             Coordinates (Angstroms)
 Number     Number       Type             X           Y           Z
 ---------------------------------------------------------------------
      1          6           0        0.000000    0.000000    0.718676
      2          6           0        0.000000    0.000000   -0.718676
      3          1           0        0.000000    0.923649    1.304071
      4          1           0        0.000000   -0.923649    1.304071
      5          1           0        0.000000    0.923649   -1.304071
      6          1           0        0.000000   -0.923649   -1.304071
 ---------------------------------------------------------------------
 Rotational constants (GHZ):    146.9459743     26.2513895     22.2724868
 Standard basis: 6-31G(d) (6D, 7F)
 There are    10 symmetry adapted basis functions of AG  symmetry.
 There are     1 symmetry adapted basis functions of B1G symmetry.
 There are     3 symmetry adapted basis functions of B2G symmetry.
 There are     5 symmetry adapted basis functions of B3G symmetry.
 There are     1 symmetry adapted basis functions of AU  symmetry.
 There are    10 symmetry adapted basis functions of B1U symmetry.
 There are     5 symmetry adapted basis functions of B2U symmetry.
 There are     3 symmetry adapted basis functions of B3U symmetry.
 Integral buffers will be    131072 words long.
 Raffenetti 2 integral format.
 Two-electron integral symmetry is turned on.
    38 basis functions,    72 primitive gaussians,    38 cartesian basis functions
     9 alpha electrons        8 beta electrons
       nuclear repulsion energy        31.8890479058 Hartrees.
 NAtoms=    6 NActive=    6 NUniq=    2 SFac= 4.00D+00 NAtFMM=   60 NAOKFM=F Big=F
 One-electron integrals computed using PRISM.
 NBasis=    38 RedAO= T  NBF=    10     1     3     5     1    10     5     3
 NBsUse=    38 1.00D-06 NBFU=    10     1     3     5     1    10     5     3
 Initial guess read from the read-write file.
 B after Tr=     0.000000    0.000000    0.000000
         Rot=    1.000000    0.000000    0.000000    0.000000 Ang=   0.00 deg.
 Initial guess orbital symmetries:
 Alpha Orbitals:
       Occupied  (AG) (B1U) (AG) (B1U) (B2U) (AG) (B3G) (B3U) (B2G)
       Virtual   (AG) (B2U) (B1U) (B3G) (B1U) (AG) (B3U) (B2U)
                 (B2G) (AG) (B1U) (B2U) (B3G) (B1U) (AG) (B1U)
                 (B3G) (B3U) (B1G) (AU) (AG) (B2U) (AG) (B1U) (B2G)
                 (B3G) (B1U) (AG) (B1U)
 Beta  Orbitals:
       Occupied  (AG) (B1U) (AG) (B1U) (B2U) (AG) (B3G) (B3U)
       Virtual   (B2G) (AG) (B2U) (B1U) (B3G) (B1U) (AG) (B2U)
                 (B3U) (AG) (B2G) (B1U) (B2U) (B3G) (B1U) (AG)
                 (B1U) (B3G) (B3U) (B1G) (AU) (AG) (B2U) (AG) (B1U)
                 (B2G) (B3G) (B1U) (AG) (B1U)
 Initial guess <Sx>= 0.0000 <Sy>= 0.0000 <Sz>= 0.5000 <S**2>= 0.7530 S= 0.5015
 Harris functional with IExCor=  402 diagonalized for initial guess.
 ExpMin= 1.61D-01 ExpMax= 3.05D+03 ExpMxC= 4.57D+02 IAcc=3 IRadAn=         5 AccDes= 0.00D+00
 HarFok:  IExCor=  402 AccDes= 0.00D+00 IRadAn=         5 IDoV= 1
 ScaDFX=  1.000000  1.000000  1.000000  1.000000
 FoFCou: FMM=F IPFlag=           0 FMFlag=      100000 FMFlg1=           0
         NFxFlg=           0 DoJE=T BraDBF=F KetDBF=T FulRan=T
         Omega=  0.000000  0.000000  1.000000  0.000000  0.000000 ICntrl=     500 IOpCl=  0
         NMat0=    1 NMatS0=    1 NMatT0=    0 NMatD0=    1 NMtDS0=    0 NMtDT0=    0
         I1Cent=           4 NGrid=           0.
 Petite list used in FoFCou.
 Requested convergence on RMS density matrix=1.00D-08 within 128 cycles.
 Requested convergence on MAX density matrix=1.00D-06.
 Requested convergence on             energy=1.00D-06.
 No special actions if energy rises.
 Keep R1 and R2 ints in memory in canonical form, NReq=1567397.
 Integral accuracy reduced to 1.0D-05 until final iterations.
 Initial convergence to 1.0D-05 achieved.  Increase integral accuracy.
 SCF Done:  E(UB3LYP) =  -78.4762402586     A.U. after   11 cycles
             Convg  =    0.1932D-08             -V/T =  2.0085
 <Sx>= 0.0000 <Sy>= 0.0000 <Sz>= 0.5000 <S**2>= 0.7532 S= 0.5016
 <L.S>= 0.000000000000E+00
 Annihilation of the first spin contaminant:
 S**2 before annihilation     0.7532,   after     0.7500
 Calling FoFJK, ICntrl=      2127 FMM=F ISym2X=1 I1Cent= 0 IOpClX= 1 NMat=1 NMatS=1 NMatT=0.
 ***** Axes restored to original set *****
 -------------------------------------------------------------------
 Center     Atomic                   Forces (Hartrees/Bohr)
 Number     Number              X              Y              Z
 -------------------------------------------------------------------
      1        6           0.006830846    0.000000000    0.000000000
      2        6          -0.006830846    0.000000000    0.000000000
      3        1          -0.000988178   -0.000182295    0.000000000
      4        1          -0.000988178    0.000182295    0.000000000
      5        1           0.000988178   -0.000182295    0.000000000
      6        1           0.000988178    0.000182295    0.000000000
 -------------------------------------------------------------------
 Cartesian Forces:  Max     0.006830846 RMS     0.002325700

 GradGradGradGradGradGradGradGradGradGradGradGradGradGradGradGradGradGrad
 Berny optimization.
 Using GEDIIS/GDIIS optimizer.
 Internal  Forces:  Max     0.004854490 RMS     0.001379014
 Search for a local minimum.
 Step number   2 out of a maximum of   25
 All quantities printed in internal units (Hartrees-Bohrs-Radians)
 Mixed Optimization -- RFO/linear search
 Update second derivatives using D2CorX and points    1    2
 DE= -8.76D-03 DEPred=-9.34D-03 R= 9.38D-01
 SS=  1.41D+00  RLast= 1.84D-01 DXNew= 5.0454D-01 5.5153D-01
 Trust test= 9.38D-01 RLast= 1.84D-01 DXMaxT set to 5.05D-01
 The second derivative matrix:
                          R1        R2        R3        R4        R5
           R1           0.54494
           R2           0.00357   0.34258
           R3           0.00357  -0.00004   0.34258
           R4           0.00357  -0.00004  -0.00004   0.34258
           R5           0.00357  -0.00004  -0.00004  -0.00004   0.34258
           A1           0.00437   0.00009   0.00009   0.00009   0.00009
           A2           0.00437   0.00009   0.00009   0.00009   0.00009
           A3          -0.00875  -0.00019  -0.00019  -0.00019  -0.00019
           A4           0.00437   0.00009   0.00009   0.00009   0.00009
           A5           0.00437   0.00009   0.00009   0.00009   0.00009
           A6          -0.00875  -0.00019  -0.00019  -0.00019  -0.00019
           D1           0.00000   0.00000   0.00000   0.00000   0.00000
           D2           0.00000   0.00000   0.00000   0.00000   0.00000
           D3           0.00000   0.00000   0.00000   0.00000   0.00000
           D4           0.00000   0.00000   0.00000   0.00000   0.00000
                          A1        A2        A3        A4        A5
           A1           0.16031
           A2           0.00031   0.16031
           A3          -0.00061  -0.00061   0.16123
           A4           0.00031   0.00031  -0.00061   0.16031
           A5           0.00031   0.00031  -0.00061   0.00031   0.16031
           A6          -0.00061  -0.00061   0.00123  -0.00061  -0.00061
           D1           0.00000   0.00000   0.00000   0.00000   0.00000
           D2           0.00000   0.00000   0.00000   0.00000   0.00000
           D3           0.00000   0.00000   0.00000   0.00000   0.00000
           D4           0.00000   0.00000   0.00000   0.00000   0.00000
                          A6        D1        D2        D3        D4
           A6           0.16123
           D1           0.00000   0.02810
           D2           0.00000   0.00000   0.02810
           D3           0.00000   0.00000   0.00000   0.02810
           D4           0.00000   0.00000   0.00000   0.00000   0.02810
 ITU=  1  0
 Use linear search instead of GDIIS.
     Eigenvalues ---    0.02810   0.02810   0.02810   0.16000   0.16000
     Eigenvalues ---    0.16000   0.16309   0.34222   0.34262   0.34262
     Eigenvalues ---    0.34262   0.54579
 RFO step:  Lambda=-3.29484463D-05 EMin= 2.80971271D-02
 Quartic linear search produced a step of  0.05547.
 Iteration  1 RMS(Cart)=  0.00215191 RMS(Int)=  0.00000464
 Iteration  2 RMS(Cart)=  0.00000487 RMS(Int)=  0.00000000
 Iteration  3 RMS(Cart)=  0.00000000 RMS(Int)=  0.00000000
 ClnCor:  largest displacement from symmetrization is 5.23D-14 for atom     6.
 Variable       Old X    -DE/DX   Delta X   Delta X   Delta X     New X
                                 (Linear)    (Quad)   (Total)
    R1        2.71620   0.00485   0.00963   0.00165   0.01128   2.72748
    R2        2.06648  -0.00068  -0.00013  -0.00201  -0.00215   2.06433
    R3        2.06648  -0.00068  -0.00013  -0.00201  -0.00215   2.06433
    R4        2.06648  -0.00068  -0.00013  -0.00201  -0.00215   2.06433
    R5        2.06648  -0.00068  -0.00013  -0.00201  -0.00215   2.06433
    A1        2.13569  -0.00051   0.00097  -0.00368  -0.00271   2.13298
    A2        2.13569  -0.00051   0.00097  -0.00368  -0.00271   2.13298
    A3        2.01181   0.00102  -0.00193   0.00735   0.00542   2.01723
    A4        2.13569  -0.00051   0.00097  -0.00368  -0.00271   2.13298
    A5        2.13569  -0.00051   0.00097  -0.00368  -0.00271   2.13298
    A6        2.01181   0.00102  -0.00193   0.00735   0.00542   2.01723
    D1        0.00000   0.00000   0.00000   0.00000   0.00000   0.00000
    D2        3.14159   0.00000   0.00000   0.00000   0.00000   3.14159
    D3        3.14159   0.00000   0.00000   0.00000   0.00000   3.14159
    D4        0.00000   0.00000   0.00000   0.00000   0.00000   0.00000
         Item               Value     Threshold  Converged?
 Maximum Force            0.004854     0.000450     NO 
 RMS     Force            0.001379     0.000300     NO 
 Maximum Displacement     0.005641     0.001800     NO 
 RMS     Displacement     0.002151     0.001200     NO 
 Predicted change in Energy=-3.401793D-05
 GradGradGradGradGradGradGradGradGradGradGradGradGradGradGradGradGradGrad

                          Input orientation:                          
 ---------------------------------------------------------------------
 Center     Atomic      Atomic             Coordinates (Angstroms)
 Number     Number       Type             X           Y           Z
 ---------------------------------------------------------------------
      1          6           0        0.721661    0.000000    0.000000
      2          6           0       -0.721661    0.000000    0.000000
      3          1           0        1.303945    0.924271    0.000000
      4          1           0        1.303945   -0.924271    0.000000
      5          1           0       -1.303945    0.924271    0.000000
      6          1           0       -1.303945   -0.924271    0.000000
 ---------------------------------------------------------------------
                    Distance matrix (angstroms):
                    1          2          3          4          5
     1  C    0.000000
     2  C    1.443322   0.000000
     3  H    1.092397   2.226512   0.000000
     4  H    1.092397   2.226512   1.848541   0.000000
     5  H    2.226512   1.092397   2.607890   3.196591   0.000000
     6  H    2.226512   1.092397   3.196591   2.607890   1.848541
                    6
     6  H    0.000000
 Stoichiometry    C2H4(1-,2)
 Framework group  D2H[C2"(C.C),SG(H4)]
 Deg. of freedom     3
 Full point group                 D2H     NOp   8
 Largest Abelian subgroup         D2H     NOp   8
 Largest concise Abelian subgroup D2      NOp   4
                         Standard orientation:                         
 ---------------------------------------------------------------------
 Center     Atomic      Atomic             Coordinates (Angstroms)
 Number     Number       Type             X           Y           Z
 ---------------------------------------------------------------------
      1          6           0        0.000000    0.000000    0.721661
      2          6           0        0.000000    0.000000   -0.721661
      3          1           0        0.000000    0.924271    1.303945
      4          1           0        0.000000   -0.924271    1.303945
      5          1           0        0.000000    0.924271   -1.303945
      6          1           0        0.000000   -0.924271   -1.303945
 ---------------------------------------------------------------------
 Rotational constants (GHZ):    146.7485476     26.1132116     22.1684420
 Standard basis: 6-31G(d) (6D, 7F)
 There are    10 symmetry adapted basis functions of AG  symmetry.
 There are     1 symmetry adapted basis functions of B1G symmetry.
 There are     3 symmetry adapted basis functions of B2G symmetry.
 There are     5 symmetry adapted basis functions of B3G symmetry.
 There are     1 symmetry adapted basis functions of AU  symmetry.
 There are    10 symmetry adapted basis functions of B1U symmetry.
 There are     5 symmetry adapted basis functions of B2U symmetry.
 There are     3 symmetry adapted basis functions of B3U symmetry.
 Integral buffers will be    131072 words long.
 Raffenetti 2 integral format.
 Two-electron integral symmetry is turned on.
    38 basis functions,    72 primitive gaussians,    38 cartesian basis functions
     9 alpha electrons        8 beta electrons
       nuclear repulsion energy        31.8385763096 Hartrees.
 NAtoms=    6 NActive=    6 NUniq=    2 SFac= 4.00D+00 NAtFMM=   60 NAOKFM=F Big=F
 One-electron integrals computed using PRISM.
 NBasis=    38 RedAO= T  NBF=    10     1     3     5     1    10     5     3
 NBsUse=    38 1.00D-06 NBFU=    10     1     3     5     1    10     5     3
 Initial guess read from the read-write file.
 B after Tr=     0.000000    0.000000    0.000000
         Rot=    1.000000    0.000000    0.000000    0.000000 Ang=   0.00 deg.
 Initial guess orbital symmetries:
 Alpha Orbitals:
       Occupied  (AG) (B1U) (AG) (B1U) (B2U) (AG) (B3G) (B3U) (B2G)
       Virtual   (AG) (B1U) (B2U) (B3G) (B1U) (AG) (B2U) (B3U)
                 (B2G) (B1U) (AG) (B3G) (B2U) (B1U) (AG) (B1U)
                 (B3G) (B3U) (B1G) (AU) (AG) (B2U) (AG) (B1U) (B2G)
                 (B3G) (B1U) (AG) (B1U)
 Beta  Orbitals:
       Occupied  (AG) (B1U) (AG) (B1U) (B2U) (AG) (B3G) (B3U)
       Virtual   (B2G) (AG) (B1U) (B2U) (B3G) (B1U) (AG) (B2U)
                 (B3U) (B1U) (B2G) (AG) (B3G) (B2U) (B1U) (AG)
                 (B1U) (B3G) (B3U) (B1G) (AU) (AG) (B2U) (AG) (B1U)
                 (B2G) (B3G) (B1U) (AG) (B1U)
 Initial guess <Sx>= 0.0000 <Sy>= 0.0000 <Sz>= 0.5000 <S**2>= 0.7532 S= 0.5016
 Requested convergence on RMS density matrix=1.00D-08 within 128 cycles.
 Requested convergence on MAX density matrix=1.00D-06.
 Requested convergence on             energy=1.00D-06.
 No special actions if energy rises.
 Keep R1 and R2 ints in memory in canonical form, NReq=1567397.
 SCF Done:  E(UB3LYP) =  -78.4762870976     A.U. after    8 cycles
             Convg  =    0.2866D-08             -V/T =  2.0086
 <Sx>= 0.0000 <Sy>= 0.0000 <Sz>= 0.5000 <S**2>= 0.7532 S= 0.5016
 <L.S>= 0.000000000000E+00
 Annihilation of the first spin contaminant:
 S**2 before annihilation     0.7532,   after     0.7500
 Calling FoFJK, ICntrl=      2127 FMM=F ISym2X=1 I1Cent= 0 IOpClX= 1 NMat=1 NMatS=1 NMatT=0.
 ***** Axes restored to original set *****
 -------------------------------------------------------------------
 Center     Atomic                   Forces (Hartrees/Bohr)
 Number     Number              X              Y              Z
 -------------------------------------------------------------------
      1        6           0.001365357    0.000000000    0.000000000
      2        6          -0.001365357    0.000000000    0.000000000
      3        1          -0.000426143    0.000210567    0.000000000
      4        1          -0.000426143   -0.000210567    0.000000000
      5        1           0.000426143    0.000210567    0.000000000
      6        1           0.000426143   -0.000210567    0.000000000
 -------------------------------------------------------------------
 Cartesian Forces:  Max     0.001365357 RMS     0.000507288

 GradGradGradGradGradGradGradGradGradGradGradGradGradGradGradGradGradGrad
 Berny optimization.
 Using GEDIIS/GDIIS optimizer.
 Internal  Forces:  Max     0.000650672 RMS     0.000320725
 Search for a local minimum.
 Step number   3 out of a maximum of   25
 All quantities printed in internal units (Hartrees-Bohrs-Radians)
 Mixed Optimization -- En-DIIS/RFO-DIIS
 Update second derivatives using D2CorX and points    1    2    3
 DE= -4.68D-05 DEPred=-3.40D-05 R= 1.38D+00
 SS=  1.41D+00  RLast= 1.53D-02 DXNew= 8.4853D-01 4.5880D-02
 Trust test= 1.38D+00 RLast= 1.53D-02 DXMaxT set to 5.05D-01
 The second derivative matrix:
                          R1        R2        R3        R4        R5
           R1           0.44439
           R2           0.00635   0.34351
           R3           0.00635   0.00089   0.34351
           R4           0.00635   0.00089   0.00089   0.34351
           R5           0.00635   0.00089   0.00089   0.00089   0.34351
           A1           0.01900  -0.00117  -0.00117  -0.00117  -0.00117
           A2           0.01900  -0.00117  -0.00117  -0.00117  -0.00117
           A3          -0.03799   0.00234   0.00234   0.00234   0.00234
           A4           0.01900  -0.00117  -0.00117  -0.00117  -0.00117
           A5           0.01900  -0.00117  -0.00117  -0.00117  -0.00117
           A6          -0.03799   0.00234   0.00234   0.00234   0.00234
           D1           0.00000   0.00000   0.00000   0.00000   0.00000
           D2           0.00000   0.00000   0.00000   0.00000   0.00000
           D3           0.00000   0.00000   0.00000   0.00000   0.00000
           D4           0.00000   0.00000   0.00000   0.00000   0.00000
                          A1        A2        A3        A4        A5
           A1           0.15918
           A2          -0.00082   0.15918
           A3           0.00165   0.00165   0.15670
           A4          -0.00082  -0.00082   0.00165   0.15918
           A5          -0.00082  -0.00082   0.00165  -0.00082   0.15918
           A6           0.00165   0.00165  -0.00330   0.00165   0.00165
           D1           0.00000   0.00000   0.00000   0.00000   0.00000
           D2           0.00000   0.00000   0.00000   0.00000   0.00000
           D3           0.00000   0.00000   0.00000   0.00000   0.00000
           D4           0.00000   0.00000   0.00000   0.00000   0.00000
                          A6        D1        D2        D3        D4
           A6           0.15670
           D1           0.00000   0.02810
           D2           0.00000   0.00000   0.02810
           D3           0.00000   0.00000   0.00000   0.02810
           D4           0.00000   0.00000   0.00000   0.00000   0.02810
 ITU=  1  1  0
 Use linear search instead of GDIIS.
     Eigenvalues ---    0.02810   0.02810   0.02810   0.13552   0.16000
     Eigenvalues ---    0.16000   0.16000   0.34262   0.34262   0.34262
     Eigenvalues ---    0.34570   0.45945
 RFO step:  Lambda=-6.45915973D-06 EMin= 2.80971271D-02
 Quartic linear search produced a step of  0.28288.
 Iteration  1 RMS(Cart)=  0.00219166 RMS(Int)=  0.00000338
 Iteration  2 RMS(Cart)=  0.00000338 RMS(Int)=  0.00000000
 Iteration  3 RMS(Cart)=  0.00000000 RMS(Int)=  0.00000000
 ClnCor:  largest displacement from symmetrization is 6.88D-14 for atom     6.
 Variable       Old X    -DE/DX   Delta X   Delta X   Delta X     New X
                                 (Linear)    (Quad)   (Total)
    R1        2.72748   0.00051   0.00319  -0.00070   0.00249   2.72998
    R2        2.06433  -0.00005  -0.00061   0.00031  -0.00030   2.06403
    R3        2.06433  -0.00005  -0.00061   0.00031  -0.00030   2.06403
    R4        2.06433  -0.00005  -0.00061   0.00031  -0.00030   2.06403
    R5        2.06433  -0.00005  -0.00061   0.00031  -0.00030   2.06403
    A1        2.13298  -0.00033  -0.00077  -0.00175  -0.00251   2.13046
    A2        2.13298  -0.00033  -0.00077  -0.00175  -0.00251   2.13046
    A3        2.01723   0.00065   0.00153   0.00349   0.00503   2.02226
    A4        2.13298  -0.00033  -0.00077  -0.00175  -0.00251   2.13046
    A5        2.13298  -0.00033  -0.00077  -0.00175  -0.00251   2.13046
    A6        2.01723   0.00065   0.00153   0.00349   0.00503   2.02226
    D1        0.00000   0.00000   0.00000   0.00000   0.00000   0.00000
    D2        3.14159   0.00000   0.00000   0.00000   0.00000   3.14159
    D3        3.14159   0.00000   0.00000   0.00000   0.00000   3.14159
    D4        0.00000   0.00000   0.00000   0.00000   0.00000   0.00000
         Item               Value     Threshold  Converged?
 Maximum Force            0.000651     0.000450     NO 
 RMS     Force            0.000321     0.000300     NO 
 Maximum Displacement     0.003306     0.001800     NO 
 RMS     Displacement     0.002191     0.001200     NO 
 Predicted change in Energy=-5.507511D-06
 GradGradGradGradGradGradGradGradGradGradGradGradGradGradGradGradGradGrad

                          Input orientation:                          
 ---------------------------------------------------------------------
 Center     Atomic      Atomic             Coordinates (Angstroms)
 Number     Number       Type             X           Y           Z
 ---------------------------------------------------------------------
      1          6           0        0.722320    0.000000    0.000000
      2          6           0       -0.722320    0.000000    0.000000
      3          1           0        1.302196    0.925598    0.000000
      4          1           0        1.302196   -0.925598    0.000000
      5          1           0       -1.302196    0.925598    0.000000
      6          1           0       -1.302196   -0.925598    0.000000
 ---------------------------------------------------------------------
                    Distance matrix (angstroms):
                    1          2          3          4          5
     1  C    0.000000
     2  C    1.444641   0.000000
     3  H    1.092240   2.226072   0.000000
     4  H    1.092240   2.226072   1.851197   0.000000
     5  H    2.226072   1.092240   2.604391   3.195275   0.000000
     6  H    2.226072   1.092240   3.195275   2.604391   1.851197
                    6
     6  H    0.000000
 Stoichiometry    C2H4(1-,2)
 Framework group  D2H[C2"(C.C),SG(H4)]
 Deg. of freedom     3
 Full point group                 D2H     NOp   8
 Largest Abelian subgroup         D2H     NOp   8
 Largest concise Abelian subgroup D2      NOp   4
                         Standard orientation:                         
 ---------------------------------------------------------------------
 Center     Atomic      Atomic             Coordinates (Angstroms)
 Number     Number       Type             X           Y           Z
 ---------------------------------------------------------------------
      1          6           0        0.000000    0.000000    0.722320
      2          6           0        0.000000    0.000000   -0.722320
      3          1           0        0.000000    0.925598    1.302196
      4          1           0        0.000000   -0.925598    1.302196
      5          1           0        0.000000    0.925598   -1.302196
      6          1           0        0.000000   -0.925598   -1.302196
 ---------------------------------------------------------------------
 Rotational constants (GHZ):    146.3278024     26.1071795     22.1544733
 Standard basis: 6-31G(d) (6D, 7F)
 There are    10 symmetry adapted basis functions of AG  symmetry.
 There are     1 symmetry adapted basis functions of B1G symmetry.
 There are     3 symmetry adapted basis functions of B2G symmetry.
 There are     5 symmetry adapted basis functions of B3G symmetry.
 There are     1 symmetry adapted basis functions of AU  symmetry.
 There are    10 symmetry adapted basis functions of B1U symmetry.
 There are     5 symmetry adapted basis functions of B2U symmetry.
 There are     3 symmetry adapted basis functions of B3U symmetry.
 Integral buffers will be    131072 words long.
 Raffenetti 2 integral format.
 Two-electron integral symmetry is turned on.
    38 basis functions,    72 primitive gaussians,    38 cartesian basis functions
     9 alpha electrons        8 beta electrons
       nuclear repulsion energy        31.8291864855 Hartrees.
 NAtoms=    6 NActive=    6 NUniq=    2 SFac= 4.00D+00 NAtFMM=   60 NAOKFM=F Big=F
 One-electron integrals computed using PRISM.
 NBasis=    38 RedAO= T  NBF=    10     1     3     5     1    10     5     3
 NBsUse=    38 1.00D-06 NBFU=    10     1     3     5     1    10     5     3
 Initial guess read from the read-write file.
 B after Tr=     0.000000    0.000000    0.000000
         Rot=    1.000000    0.000000    0.000000    0.000000 Ang=   0.00 deg.
 Initial guess orbital symmetries:
 Alpha Orbitals:
       Occupied  (AG) (B1U) (AG) (B1U) (B2U) (AG) (B3G) (B3U) (B2G)
       Virtual   (AG) (B1U) (B2U) (B3G) (B1U) (AG) (B2U) (B3U)
                 (B2G) (B1U) (AG) (B3G) (B2U) (B1U) (AG) (B1U)
                 (B3G) (B3U) (B1G) (AU) (AG) (B2U) (AG) (B1U) (B2G)
                 (B3G) (B1U) (AG) (B1U)
 Beta  Orbitals:
       Occupied  (AG) (B1U) (AG) (B1U) (B2U) (AG) (B3G) (B3U)
       Virtual   (B2G) (AG) (B1U) (B2U) (B3G) (B1U) (AG) (B2U)
                 (B3U) (B1U) (B2G) (AG) (B3G) (B2U) (B1U) (AG)
                 (B1U) (B3G) (B3U) (B1G) (AU) (AG) (B2U) (AG) (B1U)
                 (B2G) (B3G) (B1U) (AG) (B1U)
 Initial guess <Sx>= 0.0000 <Sy>= 0.0000 <Sz>= 0.5000 <S**2>= 0.7533 S= 0.5016
 Requested convergence on RMS density matrix=1.00D-08 within 128 cycles.
 Requested convergence on MAX density matrix=1.00D-06.
 Requested convergence on             energy=1.00D-06.
 No special actions if energy rises.
 Keep R1 and R2 ints in memory in canonical form, NReq=1567397.
 SCF Done:  E(UB3LYP) =  -78.4762935182     A.U. after    7 cycles
             Convg  =    0.4374D-08             -V/T =  2.0086
 <Sx>= 0.0000 <Sy>= 0.0000 <Sz>= 0.5000 <S**2>= 0.7533 S= 0.5016
 <L.S>= 0.000000000000E+00
 Annihilation of the first spin contaminant:
 S**2 before annihilation     0.7533,   after     0.7500
 Calling FoFJK, ICntrl=      2127 FMM=F ISym2X=1 I1Cent= 0 IOpClX= 1 NMat=1 NMatS=1 NMatT=0.
 ***** Axes restored to original set *****
 -------------------------------------------------------------------
 Center     Atomic                   Forces (Hartrees/Bohr)
 Number     Number              X              Y              Z
 -------------------------------------------------------------------
      1        6          -0.000032635    0.000000000    0.000000000
      2        6           0.000032635    0.000000000    0.000000000
      3        1          -0.000097544    0.000048561    0.000000000
      4        1          -0.000097544   -0.000048561    0.000000000
      5        1           0.000097544    0.000048561    0.000000000
      6        1           0.000097544   -0.000048561    0.000000000
 -------------------------------------------------------------------
 Cartesian Forces:  Max     0.000097544 RMS     0.000052505

 GradGradGradGradGradGradGradGradGradGradGradGradGradGradGradGradGradGrad
 Berny optimization.
 Using GEDIIS/GDIIS optimizer.
 Internal  Forces:  Max     0.000227722 RMS     0.000089110
 Search for a local minimum.
 Step number   4 out of a maximum of   25
 All quantities printed in internal units (Hartrees-Bohrs-Radians)
 Mixed Optimization -- En-DIIS/RFO-DIIS
 Swaping is turned off.
 Update second derivatives using D2CorX and points    1    2    3    4
 DE= -6.42D-06 DEPred=-5.51D-06 R= 1.17D+00
 SS=  1.41D+00  RLast= 9.08D-03 DXNew= 8.4853D-01 2.7234D-02
 Trust test= 1.17D+00 RLast= 9.08D-03 DXMaxT set to 5.05D-01
 The second derivative matrix:
                          R1        R2        R3        R4        R5
           R1           0.46484
           R2           0.00703   0.34419
           R3           0.00703   0.00157   0.34419
           R4           0.00703   0.00157   0.00157   0.34419
           R5           0.00703   0.00157   0.00157   0.00157   0.34419
           A1           0.01357  -0.00158  -0.00158  -0.00158  -0.00158
           A2           0.01357  -0.00158  -0.00158  -0.00158  -0.00158
           A3          -0.02714   0.00316   0.00316   0.00316   0.00316
           A4           0.01357  -0.00158  -0.00158  -0.00158  -0.00158
           A5           0.01357  -0.00158  -0.00158  -0.00158  -0.00158
           A6          -0.02714   0.00316   0.00316   0.00316   0.00316
           D1           0.00000   0.00000   0.00000   0.00000   0.00000
           D2           0.00000   0.00000   0.00000   0.00000   0.00000
           D3           0.00000   0.00000   0.00000   0.00000   0.00000
           D4           0.00000   0.00000   0.00000   0.00000   0.00000
                          A1        A2        A3        A4        A5
           A1           0.15616
           A2          -0.00384   0.15616
           A3           0.00768   0.00768   0.14464
           A4          -0.00384  -0.00384   0.00768   0.15616
           A5          -0.00384  -0.00384   0.00768  -0.00384   0.15616
           A6           0.00768   0.00768  -0.01536   0.00768   0.00768
           D1           0.00000   0.00000   0.00000   0.00000   0.00000
           D2           0.00000   0.00000   0.00000   0.00000   0.00000
           D3           0.00000   0.00000   0.00000   0.00000   0.00000
           D4           0.00000   0.00000   0.00000   0.00000   0.00000
                          A6        D1        D2        D3        D4
           A6           0.14464
           D1           0.00000   0.02810
           D2           0.00000   0.00000   0.02810
           D3           0.00000   0.00000   0.00000   0.02810
           D4           0.00000   0.00000   0.00000   0.00000   0.02810
 ITU=  1  1  1  0
     Eigenvalues ---    0.02810   0.02810   0.02810   0.10707   0.16000
     Eigenvalues ---    0.16000   0.16000   0.34262   0.34262   0.34262
     Eigenvalues ---    0.34828   0.47230
 En-DIIS/RFO-DIIS IScMMF=        0 using points:     4    3
 RFO step:  Lambda=-2.55781730D-07.
 DidBck=F Rises=F RFO-DIIS coefs:    1.17936   -0.17936
 Iteration  1 RMS(Cart)=  0.00073076 RMS(Int)=  0.00000021
 Iteration  2 RMS(Cart)=  0.00000021 RMS(Int)=  0.00000000
 ClnCor:  largest displacement from symmetrization is 5.03D-14 for atom     6.
 Variable       Old X    -DE/DX   Delta X   Delta X   Delta X     New X
                                  (DIIS)     (GDIIS)  (Total)
    R1        2.72998  -0.00023   0.00045  -0.00071  -0.00027   2.72971
    R2        2.06403  -0.00001  -0.00005  -0.00001  -0.00006   2.06397
    R3        2.06403  -0.00001  -0.00005  -0.00001  -0.00006   2.06397
    R4        2.06403  -0.00001  -0.00005  -0.00001  -0.00006   2.06397
    R5        2.06403  -0.00001  -0.00005  -0.00001  -0.00006   2.06397
    A1        2.13046  -0.00007  -0.00045  -0.00018  -0.00063   2.12984
    A2        2.13046  -0.00007  -0.00045  -0.00018  -0.00063   2.12984
    A3        2.02226   0.00015   0.00090   0.00035   0.00125   2.02351
    A4        2.13046  -0.00007  -0.00045  -0.00018  -0.00063   2.12984
    A5        2.13046  -0.00007  -0.00045  -0.00018  -0.00063   2.12984
    A6        2.02226   0.00015   0.00090   0.00035   0.00125   2.02351
    D1        0.00000   0.00000   0.00000   0.00000   0.00000   0.00000
    D2        3.14159   0.00000   0.00000   0.00000   0.00000   3.14159
    D3        3.14159   0.00000   0.00000   0.00000   0.00000   3.14159
    D4        0.00000   0.00000   0.00000   0.00000   0.00000   0.00000
         Item               Value     Threshold  Converged?
 Maximum Force            0.000228     0.000450     YES
 RMS     Force            0.000089     0.000300     YES
 Maximum Displacement     0.001261     0.001800     YES
 RMS     Displacement     0.000731     0.001200     YES
 Predicted change in Energy=-3.120576D-07
 Optimization completed.
    -- Stationary point found.
                           ----------------------------
                           !   Optimized Parameters   !
                           ! (Angstroms and Degrees)  !
 --------------------------                            --------------------------
 ! Name  Definition              Value          Derivative Info.                !
 --------------------------------------------------------------------------------
 ! R1    R(1,2)                  1.4446         -DE/DX =   -0.0002              !
 ! R2    R(1,3)                  1.0922         -DE/DX =    0.0                 !
 ! R3    R(1,4)                  1.0922         -DE/DX =    0.0                 !
 ! R4    R(2,5)                  1.0922         -DE/DX =    0.0                 !
 ! R5    R(2,6)                  1.0922         -DE/DX =    0.0                 !
 ! A1    A(2,1,3)              122.0666         -DE/DX =   -0.0001              !
 ! A2    A(2,1,4)              122.0666         -DE/DX =   -0.0001              !
 ! A3    A(3,1,4)              115.8668         -DE/DX =    0.0001              !
 ! A4    A(1,2,5)              122.0666         -DE/DX =   -0.0001              !
 ! A5    A(1,2,6)              122.0666         -DE/DX =   -0.0001              !
 ! A6    A(5,2,6)              115.8668         -DE/DX =    0.0001              !
 ! D1    D(3,1,2,5)              0.0            -DE/DX =    0.0                 !
 ! D2    D(3,1,2,6)            180.0            -DE/DX =    0.0                 !
 ! D3    D(4,1,2,5)            180.0            -DE/DX =    0.0                 !
 ! D4    D(4,1,2,6)              0.0            -DE/DX =    0.0                 !
 --------------------------------------------------------------------------------
 GradGradGradGradGradGradGradGradGradGradGradGradGradGradGradGradGradGrad

                          Input orientation:                          
 ---------------------------------------------------------------------
 Center     Atomic      Atomic             Coordinates (Angstroms)
 Number     Number       Type             X           Y           Z
 ---------------------------------------------------------------------
      1          6           0        0.722320    0.000000    0.000000
      2          6           0       -0.722320    0.000000    0.000000
      3          1           0        1.302196    0.925598    0.000000
      4          1           0        1.302196   -0.925598    0.000000
      5          1           0       -1.302196    0.925598    0.000000
      6          1           0       -1.302196   -0.925598    0.000000
 ---------------------------------------------------------------------
                    Distance matrix (angstroms):
                    1          2          3          4          5
     1  C    0.000000
     2  C    1.444641   0.000000
     3  H    1.092240   2.226072   0.000000
     4  H    1.092240   2.226072   1.851197   0.000000
     5  H    2.226072   1.092240   2.604391   3.195275   0.000000
     6  H    2.226072   1.092240   3.195275   2.604391   1.851197
                    6
     6  H    0.000000
 Stoichiometry    C2H4(1-,2)
 Framework group  D2H[C2"(C.C),SG(H4)]
 Deg. of freedom     3
 Full point group                 D2H     NOp   8
 Largest Abelian subgroup         D2H     NOp   8
 Largest concise Abelian subgroup D2      NOp   4
                         Standard orientation:                         
 ---------------------------------------------------------------------
 Center     Atomic      Atomic             Coordinates (Angstroms)
 Number     Number       Type             X           Y           Z
 ---------------------------------------------------------------------
      1          6           0        0.000000    0.000000    0.722320
      2          6           0        0.000000    0.000000   -0.722320
      3          1           0        0.000000    0.925598    1.302196
      4          1           0        0.000000   -0.925598    1.302196
      5          1           0        0.000000    0.925598   -1.302196
      6          1           0        0.000000   -0.925598   -1.302196
 ---------------------------------------------------------------------
 Rotational constants (GHZ):    146.3278024     26.1071795     22.1544733

 **********************************************************************

            Population analysis using the SCF density.

 **********************************************************************

 Orbital symmetries:
 Alpha Orbitals:
       Occupied  (AG) (B1U) (AG) (B1U) (B2U) (AG) (B3G) (B3U) (B2G)
       Virtual   (AG) (B1U) (B2U) (B3G) (B1U) (AG) (B2U) (B3U)
                 (B2G) (B1U) (AG) (B3G) (B2U) (B1U) (AG) (B1U)
                 (B3G) (B3U) (B1G) (AU) (AG) (B2U) (AG) (B1U) (B2G)
                 (B3G) (B1U) (AG) (B1U)
 Beta  Orbitals:
       Occupied  (AG) (B1U) (AG) (B1U) (B2U) (AG) (B3G) (B3U)
       Virtual   (B2G) (AG) (B1U) (B2U) (B3G) (B1U) (AG) (B2U)
                 (B3U) (B1U) (B2G) (AG) (B3G) (B2U) (B1U) (AG)
                 (B1U) (B3G) (B3U) (B1G) (AU) (AG) (B2U) (AG) (B1U)
                 (B2G) (B3G) (B1U) (AG) (B1U)
 The electronic state is 2-B2G.
 Alpha  occ. eigenvalues --   -9.87439  -9.87404  -0.43287  -0.30290  -0.16607
 Alpha  occ. eigenvalues --   -0.10500  -0.08386   0.02451   0.20318
 Alpha virt. eigenvalues --    0.35676   0.37866   0.38980   0.46551   0.56261
 Alpha virt. eigenvalues --    0.78594   0.81503   0.82937   0.88350   0.90563
 Alpha virt. eigenvalues --    0.92924   1.13248   1.13977   1.18433   1.20203
 Alpha virt. eigenvalues --    1.32711   1.41423   1.74453   1.87981   2.08934
 Alpha virt. eigenvalues --    2.19619   2.27014   2.28248   2.50962   2.57201
 Alpha virt. eigenvalues --    2.90883   2.91762   4.34754   4.56202
  Beta  occ. eigenvalues --   -9.86753  -9.86714  -0.41473  -0.28277  -0.16106
  Beta  occ. eigenvalues --   -0.09978  -0.07982   0.07777
  Beta virt. eigenvalues --    0.31954   0.36437   0.38869   0.39133   0.46876
  Beta virt. eigenvalues --    0.57147   0.79021   0.81621   0.86346   0.92173
  Beta virt. eigenvalues --    0.92757   0.93979   1.13815   1.14174   1.19288
  Beta virt. eigenvalues --    1.21310   1.34838   1.41976   1.77754   1.91296
  Beta virt. eigenvalues --    2.12719   2.23770   2.27505   2.28697   2.53914
  Beta virt. eigenvalues --    2.60900   2.91567   2.93298   4.36477   4.58075
          Condensed to atoms (all electrons):
              1          2          3          4          5          6
     1  C    5.386024   0.419525   0.352195   0.352195  -0.033541  -0.033541
     2  C    0.419525   5.386024  -0.033541  -0.033541   0.352195   0.352195
     3  H    0.352195  -0.033541   0.789601  -0.076131  -0.010455   0.006903
     4  H    0.352195  -0.033541  -0.076131   0.789601   0.006903  -0.010455
     5  H   -0.033541   0.352195  -0.010455   0.006903   0.789601  -0.076131
     6  H   -0.033541   0.352195   0.006903  -0.010455  -0.076131   0.789601
 Mulliken atomic charges:
              1
     1  C   -0.442857
     2  C   -0.442857
     3  H   -0.028571
     4  H   -0.028571
     5  H   -0.028571
     6  H   -0.028571
 Sum of Mulliken atomic charges =  -1.00000
 Mulliken charges with hydrogens summed into heavy atoms:
              1
     1  C   -0.500000
     2  C   -0.500000
 Sum of Mulliken charges with hydrogens summed into heavy atoms =  -1.00000
          Atomic-Atomic Spin Densities.
              1          2          3          4          5          6
     1  C    0.884878  -0.322540   0.005005   0.005005  -0.001712  -0.001712
     2  C   -0.322540   0.884878  -0.001712  -0.001712   0.005005   0.005005
     3  H    0.005005  -0.001712  -0.038946   0.000710   0.000839  -0.000358
     4  H    0.005005  -0.001712   0.000710  -0.038946  -0.000358   0.000839
     5  H   -0.001712   0.005005   0.000839  -0.000358  -0.038946   0.000710
     6  H   -0.001712   0.005005  -0.000358   0.000839   0.000710  -0.038946
 Mulliken atomic spin densities:
              1
     1  C    0.568924
     2  C    0.568924
     3  H   -0.034462
     4  H   -0.034462
     5  H   -0.034462
     6  H   -0.034462
 Sum of Mulliken atomic spin densities =   1.00000
 Electronic spatial extent (au):  <R**2>=            100.5278
 Charge=             -1.0000 electrons
 Dipole moment (field-independent basis, Debye):
    X=              0.0000    Y=              0.0000    Z=              0.0000  Tot=              0.0000
 Quadrupole moment (field-independent basis, Debye-Ang):
   XX=            -19.5829   YY=            -16.2182   ZZ=            -20.2998
   XY=              0.0000   XZ=              0.0000   YZ=              0.0000
 Traceless Quadrupole moment (field-independent basis, Debye-Ang):
   XX=             -0.8826   YY=              2.4821   ZZ=             -1.5995
   XY=              0.0000   XZ=              0.0000   YZ=              0.0000
 Octapole moment (field-independent basis, Debye-Ang**2):
  XXX=              0.0000  YYY=              0.0000  ZZZ=              0.0000  XYY=              0.0000
  XXY=              0.0000  XXZ=              0.0000  XZZ=              0.0000  YZZ=              0.0000
  YYZ=              0.0000  XYZ=              0.0000
 Hexadecapole moment (field-independent basis, Debye-Ang**3):
 XXXX=            -23.2952 YYYY=            -36.3039 ZZZZ=           -100.8427 XXXY=              0.0000
 XXXZ=              0.0000 YYYX=              0.0000 YYYZ=              0.0000 ZZZX=              0.0000
 ZZZY=              0.0000 XXYY=            -10.0834 XXZZ=            -22.4171 YYZZ=            -22.9239
 XXYZ=              0.0000 YYXZ=              0.0000 ZZXY=              0.0000
 N-N= 3.182918648548D+01 E-N=-3.708021787385D+02  KE= 1.160381240763D+02
 Symmetry AG   KE= 5.531849301785D+01
 Symmetry B1G  KE= 4.472980679774D-34
 Symmetry B2G  KE= 1.205463426017D+00
 Symmetry B3G  KE= 2.871210682603D+00
 Symmetry AU   KE= 4.665779802269D-34
 Symmetry B1U  KE= 5.125254502040D+01
 Symmetry B2U  KE= 2.576710199402D+00
 Symmetry B3U  KE= 2.813701730057D+00
                          Isotropic Fermi Contact Couplings
        Atom                 a.u.       MegaHertz       Gauss      10(-4) cm-1
     1  C(13)              0.05192      58.37285      20.82888      19.47109
     2  C(13)              0.05192      58.37285      20.82888      19.47109
     3  H(1)              -0.00866     -38.73043     -13.81998     -12.91908
     4  H(1)              -0.00866     -38.73043     -13.81998     -12.91908
     5  H(1)              -0.00866     -38.73043     -13.81998     -12.91908
     6  H(1)              -0.00866     -38.73043     -13.81998     -12.91908
 --------------------------------------------------------
       Center         ----  Spin Dipole Couplings  ----
                      3XX-RR        3YY-RR        3ZZ-RR
 --------------------------------------------------------
     1   Atom        0.569357     -0.291514     -0.277843
     2   Atom        0.569357     -0.291514     -0.277843
     3   Atom       -0.000639      0.019634     -0.018996
     4   Atom       -0.000639      0.019634     -0.018996
     5   Atom       -0.000639      0.019634     -0.018996
     6   Atom       -0.000639      0.019634     -0.018996
 --------------------------------------------------------
                        XY            XZ            YZ
 --------------------------------------------------------
     1   Atom        0.000000      0.000000      0.000000
     2   Atom        0.000000      0.000000      0.000000
     3   Atom        0.000000      0.000000      0.037688
     4   Atom        0.000000      0.000000     -0.037688
     5   Atom        0.000000      0.000000     -0.037688
     6   Atom        0.000000      0.000000      0.037688
 --------------------------------------------------------


 ---------------------------------------------------------------------------------
              Anisotropic Spin Dipole Couplings in Principal Axis System
 ---------------------------------------------------------------------------------

       Atom             a.u.   MegaHertz   Gauss  10(-4) cm-1        Axes

              Baa    -0.2915   -39.118   -13.958   -13.048  0.0000  1.0000  0.0000
     1 C(13)  Bbb    -0.2778   -37.284   -13.304   -12.437  0.0000  0.0000  1.0000
              Bcc     0.5694    76.402    27.262    25.485  1.0000  0.0000  0.0000
 
              Baa    -0.2915   -39.118   -13.958   -13.048  0.0000  1.0000  0.0000
     2 C(13)  Bbb    -0.2778   -37.284   -13.304   -12.437  0.0000  0.0000  1.0000
              Bcc     0.5694    76.402    27.262    25.485  1.0000  0.0000  0.0000
 
              Baa    -0.0420   -22.425    -8.002    -7.480  0.0000 -0.5215  0.8533
     3 H(1)   Bbb    -0.0006    -0.341    -0.122    -0.114  1.0000  0.0000  0.0000
              Bcc     0.0427    22.766     8.123     7.594  0.0000  0.8533  0.5215
 
              Baa    -0.0420   -22.425    -8.002    -7.480  0.0000  0.5215  0.8533
     4 H(1)   Bbb    -0.0006    -0.341    -0.122    -0.114  1.0000  0.0000  0.0000
              Bcc     0.0427    22.766     8.123     7.594  0.0000  0.8533 -0.5215
 
              Baa    -0.0420   -22.425    -8.002    -7.480  0.0000  0.5215  0.8533
     5 H(1)   Bbb    -0.0006    -0.341    -0.122    -0.114  1.0000  0.0000  0.0000
              Bcc     0.0427    22.766     8.123     7.594  0.0000  0.8533 -0.5215
 
              Baa    -0.0420   -22.425    -8.002    -7.480  0.0000 -0.5215  0.8533
     6 H(1)   Bbb    -0.0006    -0.341    -0.122    -0.114  1.0000  0.0000  0.0000
              Bcc     0.0427    22.766     8.123     7.594  0.0000  0.8533  0.5215
 

 ---------------------------------------------------------------------------------

 1\1\GINC-BUFALO\FOpt\UB3LYP\6-31G(d)\C2H4(1-,2)\BETO\09-Apr-2021\0\\# 
 opt B3LYP/6-31G* freq=noraman int=ultrafine\\ethylene anion\\-1,2\C,0.
 7223204967,0.,0.\C,-0.7223204967,0.,0.\H,1.3021956183,0.9255984223,0.\
 H,1.3021956183,-0.9255984223,0.\H,-1.3021956183,0.9255984223,0.\H,-1.3
 021956183,-0.9255984223,0.\\Version=EM64L-G09RevC.01\State=2-B2G\HF=-7
 8.4762935\S2=0.753254\S2-1=0.\S2A=0.750008\RMSD=4.374e-09\RMSF=5.250e-
 05\Dipole=0.,0.,0.\Quadrupole=-1.1891925,1.8453966,-0.6562041,0.,0.,0.
 \PG=D02H [C2"(C1.C1),SG(H4)]\\@


 COLLEGE PROFESSOR: SOMEONE WHO TALKS IN OTHER PEOPLE'S SLEEP.
 Job cpu time:  0 days  0 hours  0 minutes  8.2 seconds.
 File lengths (MBytes):  RWF=      5 Int=      0 D2E=      0 Chk=      1 Scr=      1
 Normal termination of Gaussian 09 at Fri Apr  9 20:37:35 2021.
 Link1:  Proceeding to internal job step number  2.
 --------------------------------------------------------------------
 #N Geom=AllCheck Guess=TCheck SCRF=Check GenChk UB3LYP/6-31G(d) Freq
 --------------------------------------------------------------------
 1/10=4,29=7,30=1,38=1,40=1/1,3;
 2/12=2,40=1/2;
 3/5=1,6=6,7=1,11=2,14=-4,16=1,25=1,30=1,70=2,71=2,74=-5,75=-5,116=2/1,2,3;
 4/5=101/1;
 5/5=2,98=1/2;
 8/6=4,10=90,11=11/1;
 11/6=1,8=1,9=11,15=111,16=1/1,2,10;
 10/6=1/2;
 6/7=2,8=2,9=2,10=2,18=1,28=1/1;
 7/8=1,10=1,25=1/1,2,3,16;
 1/10=4,30=1/3;
 99//99;
 Structure from the checkpoint file:  ethylene-anion.chk
 --------------
 ethylene anion
 --------------
 Charge = -1 Multiplicity = 2
 Redundant internal coordinates found in file.
 C,0,0.7223204967,0.,0.
 C,0,-0.7223204967,0.,0.
 H,0,1.3021956183,0.9255984223,0.
 H,0,1.3021956183,-0.9255984223,0.
 H,0,-1.3021956183,0.9255984223,0.
 H,0,-1.3021956183,-0.9255984223,0.
 Recover connectivity data from disk.

 GradGradGradGradGradGradGradGradGradGradGradGradGradGradGradGradGradGrad
 Berny optimization.
 Initialization pass.
                           ----------------------------
                           !    Initial Parameters    !
                           ! (Angstroms and Degrees)  !
 --------------------------                            --------------------------
 ! Name  Definition              Value          Derivative Info.                !
 --------------------------------------------------------------------------------
 ! R1    R(1,2)                  1.4446         calculate D2E/DX2 analytically  !
 ! R2    R(1,3)                  1.0922         calculate D2E/DX2 analytically  !
 ! R3    R(1,4)                  1.0922         calculate D2E/DX2 analytically  !
 ! R4    R(2,5)                  1.0922         calculate D2E/DX2 analytically  !
 ! R5    R(2,6)                  1.0922         calculate D2E/DX2 analytically  !
 ! A1    A(2,1,3)              122.0666         calculate D2E/DX2 analytically  !
 ! A2    A(2,1,4)              122.0666         calculate D2E/DX2 analytically  !
 ! A3    A(3,1,4)              115.8668         calculate D2E/DX2 analytically  !
 ! A4    A(1,2,5)              122.0666         calculate D2E/DX2 analytically  !
 ! A5    A(1,2,6)              122.0666         calculate D2E/DX2 analytically  !
 ! A6    A(5,2,6)              115.8668         calculate D2E/DX2 analytically  !
 ! D1    D(3,1,2,5)              0.0            calculate D2E/DX2 analytically  !
 ! D2    D(3,1,2,6)            180.0            calculate D2E/DX2 analytically  !
 ! D3    D(4,1,2,5)            180.0            calculate D2E/DX2 analytically  !
 ! D4    D(4,1,2,6)              0.0            calculate D2E/DX2 analytically  !
 --------------------------------------------------------------------------------
 Trust Radius=3.00D-01 FncErr=1.00D-07 GrdErr=1.00D-07
 Number of steps in this run=      2 maximum allowed number of steps=      2.
 GradGradGradGradGradGradGradGradGradGradGradGradGradGradGradGradGradGrad

                          Input orientation:                          
 ---------------------------------------------------------------------
 Center     Atomic      Atomic             Coordinates (Angstroms)
 Number     Number       Type             X           Y           Z
 ---------------------------------------------------------------------
      1          6           0        0.722320    0.000000    0.000000
      2          6           0       -0.722320    0.000000    0.000000
      3          1           0        1.302196    0.925598    0.000000
      4          1           0        1.302196   -0.925598    0.000000
      5          1           0       -1.302196    0.925598    0.000000
      6          1           0       -1.302196   -0.925598    0.000000
 ---------------------------------------------------------------------
[...]
              Bcc     0.5694    76.402    27.262    25.485  1.0000  0.0000  0.0000
 
              Baa    -0.2915   -39.118   -13.958   -13.048  0.0000  1.0000  0.0000
     2 C(13)  Bbb    -0.2778   -37.284   -13.304   -12.437  0.0000  0.0000  1.0000
              Bcc     0.5694    76.402    27.262    25.485  1.0000  0.0000  0.0000
 
              Baa    -0.0420   -22.425    -8.002    -7.480  0.0000 -0.5215  0.8533
     3 H(1)   Bbb    -0.0006    -0.341    -0.122    -0.114  1.0000  0.0000  0.0000
              Bcc     0.0427    22.766     8.123     7.594  0.0000  0.8533  0.5215
 
              Baa    -0.0420   -22.425    -8.002    -7.480  0.0000  0.5215  0.8533
     4 H(1)   Bbb    -0.0006    -0.341    -0.122    -0.114  1.0000  0.0000  0.0000
              Bcc     0.0427    22.766     8.123     7.594  0.0000  0.8533 -0.5215
 
              Baa    -0.0420   -22.425    -8.002    -7.480  0.0000  0.5215  0.8533
     5 H(1)   Bbb    -0.0006    -0.341    -0.122    -0.114  1.0000  0.0000  0.0000
              Bcc     0.0427    22.766     8.123     7.594  0.0000  0.8533 -0.5215
 
              Baa    -0.0420   -22.425    -8.002    -7.480  0.0000 -0.5215  0.8533
     6 H(1)   Bbb    -0.0006    -0.341    -0.122    -0.114  1.0000  0.0000  0.0000
              Bcc     0.0427    22.766     8.123     7.594  0.0000  0.8533  0.5215
 

 ---------------------------------------------------------------------------------

 Calling FoFJK, ICntrl=    100127 FMM=F ISym2X=1 I1Cent= 0 IOpClX= 1 NMat=1 NMatS=1 NMatT=0.
 Full mass-weighted force constant matrix:
 Low frequencies --- -749.6566 -607.7198 -198.6926  -23.7747    0.0003    0.0006
 Low frequencies ---    0.0007   16.0119   20.2046
 ******    3 imaginary frequencies (negative Signs) ****** 
 Harmonic frequencies (cm**-1), IR intensities (KM/Mole), Raman scattering
 activities (A**4/AMU), depolarization ratios for plane and unpolarized
 incident light, reduced masses (AMU), force constants (mDyne/A),
 and normal coordinates:
                     1                      2                      3
                    B2G                    B3U                    AU
 Frequencies --  -749.6563              -607.7198              -198.6926
 Red. masses --     1.4897                 1.1607                 1.0078
 Frc consts  --     0.4933                 0.2526                 0.0234
 IR Inten    --     0.0000               201.3348                 0.0000
  Atom  AN      X      Y      Z        X      Y      Z        X      Y      Z
     1   6     0.15   0.00   0.00     0.08   0.00   0.00     0.00   0.00   0.00
     2   6    -0.15   0.00   0.00     0.08   0.00   0.00     0.00   0.00   0.00
     3   1    -0.49   0.00   0.00    -0.50   0.00   0.00     0.50   0.00   0.00
     4   1    -0.49   0.00   0.00    -0.50   0.00   0.00    -0.50   0.00   0.00
     5   1     0.49   0.00   0.00    -0.50   0.00   0.00    -0.50   0.00   0.00
     6   1     0.49   0.00   0.00    -0.50   0.00   0.00     0.50   0.00   0.00
                     4                      5                      6
                    B2U                    B3G                    AG
 Frequencies --   755.8315              1172.6986              1200.2729
 Red. masses --     1.0437                 1.4880                 2.2814
 Frc consts  --     0.3513                 1.2057                 1.9365
 IR Inten    --     0.1609                 0.0000                 0.0000
  Atom  AN      X      Y      Z        X      Y      Z        X      Y      Z
     1   6     0.00  -0.04   0.00     0.00   0.15   0.00     0.00   0.00   0.24
     2   6     0.00  -0.04   0.00     0.00  -0.15   0.00     0.00   0.00  -0.24
     3   1     0.00   0.24  -0.44     0.00  -0.16   0.46     0.00  -0.11   0.46
     4   1     0.00   0.24   0.44     0.00  -0.16  -0.46     0.00   0.11   0.46
     5   1     0.00   0.24   0.44     0.00   0.16   0.46     0.00  -0.11  -0.46
     6   1     0.00   0.24  -0.44     0.00   0.16  -0.46     0.00   0.11  -0.46
                     7                      8                      9
                    B1U                    AG                     B1U
 Frequencies --  1438.4866              1522.7335              3063.6192
 Red. masses --     1.1143                 1.4553                 1.0457
 Frc consts  --     1.3585                 1.9882                 5.7825
 IR Inten    --     3.5249                 0.0000               179.9689
  Atom  AN      X      Y      Z        X      Y      Z        X      Y      Z
     1   6     0.00   0.00   0.07     0.00   0.00   0.14     0.00   0.00   0.04
     2   6     0.00   0.00   0.07     0.00   0.00  -0.14     0.00   0.00   0.04
     3   1     0.00   0.28  -0.41     0.00   0.32  -0.37     0.00  -0.43  -0.25
     4   1     0.00  -0.28  -0.41     0.00  -0.32  -0.37     0.00   0.43  -0.25
     5   1     0.00  -0.28  -0.41     0.00   0.32   0.37     0.00   0.43  -0.25
     6   1     0.00   0.28  -0.41     0.00  -0.32   0.37     0.00  -0.43  -0.25
                    10                     11                     12
                    AG                     B3G                    B2U
 Frequencies --  3094.8785              3114.8484              3144.1479
 Red. masses --     1.0612                 1.1081                 1.1165
 Frc consts  --     5.9886                 6.3342                 6.5029
 IR Inten    --     0.0000                 0.0000               320.7762
  Atom  AN      X      Y      Z        X      Y      Z        X      Y      Z
     1   6     0.00   0.00  -0.05     0.00  -0.07   0.00     0.00   0.07   0.00
     2   6     0.00   0.00   0.05     0.00   0.07   0.00     0.00   0.07   0.00
     3   1     0.00   0.43   0.25     0.00   0.42   0.27     0.00  -0.42  -0.27
     4   1     0.00  -0.43   0.25     0.00   0.42  -0.27     0.00  -0.42   0.27
     5   1     0.00   0.43  -0.25     0.00  -0.42   0.27     0.00  -0.42   0.27
     6   1     0.00  -0.43  -0.25     0.00  -0.42  -0.27     0.00  -0.42  -0.27

 -------------------
 - Thermochemistry -
 -------------------
 Temperature   298.150 Kelvin.  Pressure   1.00000 Atm.
 Atom     1 has atomic number  6 and mass  12.00000
 Atom     2 has atomic number  6 and mass  12.00000
 Atom     3 has atomic number  1 and mass   1.00783
 Atom     4 has atomic number  1 and mass   1.00783
 Atom     5 has atomic number  1 and mass   1.00783
 Atom     6 has atomic number  1 and mass   1.00783
 Molecular mass:    28.03130 amu.
 Principal axes and moments of inertia in atomic units:
                           1         2         3
     Eigenvalues --    12.33355  69.12816  81.46171
           X            0.00000   0.00000   1.00000
           Y            0.00000   1.00000   0.00000
           Z            1.00000   0.00000   0.00000
 This molecule is an asymmetric top.
 Rotational symmetry number  4.
 Rotational temperatures (Kelvin)      7.02262     1.25295     1.06325
 Rotational constants (GHZ):         146.32780    26.10718    22.15447
    3 imaginary frequencies ignored.
 Zero-point vibrational energy     110699.5 (Joules/Mol)
                                   26.45782 (Kcal/Mol)
 Vibrational temperatures:   1087.47  1687.25  1726.92  2069.66  2190.87
          (Kelvin)           4407.86  4452.83  4481.57  4523.72
 
 Zero-point correction=                           0.042163 (Hartree/Particle)
 Thermal correction to Energy=                    0.045134
 Thermal correction to Enthalpy=                  0.046078
 Thermal correction to Gibbs Free Energy=         0.020521
 Sum of electronic and zero-point Energies=            -78.434130
 Sum of electronic and thermal Energies=               -78.431159
 Sum of electronic and thermal Enthalpies=             -78.430215
 Sum of electronic and thermal Free Energies=          -78.455772
 
                     E (Thermal)             CV                S
                      KCal/Mol        Cal/Mol-Kelvin    Cal/Mol-Kelvin
 Total                   28.322              7.278             53.789
 Electronic               0.000              0.000              1.377
 Translational            0.889              2.981             35.927
 Rotational               0.889              2.981             16.125
 Vibrational             26.545              1.317              0.360
                       Q            Log10(Q)             Ln(Q)
 Total Bot       0.363831D-09         -9.439100        -21.734332
 Total V=0       0.900733D+10          9.954596         22.921304
 Vib (Bot)       0.418133D-19        -19.378685        -44.621071
 Vib (V=0)       0.103517D+01          0.015011          0.034565
 Electronic      0.200000D+01          0.301030          0.693147
 Translational   0.583338D+07          6.765920         15.579107
 Rotational      0.745821D+03          2.872635          6.614486
 ***** Axes restored to original set *****
 -------------------------------------------------------------------
 Center     Atomic                   Forces (Hartrees/Bohr)
 Number     Number              X              Y              Z
 -------------------------------------------------------------------
      1        6          -0.000032638    0.000000000    0.000000000
      2        6           0.000032638    0.000000000    0.000000000
      3        1          -0.000097543    0.000048561    0.000000000
      4        1          -0.000097543   -0.000048561    0.000000000
      5        1           0.000097543    0.000048561    0.000000000
      6        1           0.000097543   -0.000048561    0.000000000
 -------------------------------------------------------------------
 Cartesian Forces:  Max     0.000097543 RMS     0.000052505

 GradGradGradGradGradGradGradGradGradGradGradGradGradGradGradGradGradGrad
 Berny optimization.
 Internal  Forces:  Max     0.000227725 RMS     0.000089111
 Search for a local minimum.
 Step number   1 out of a maximum of    2
 All quantities printed in internal units (Hartrees-Bohrs-Radians)
 Second derivative matrix not updated -- analytic derivatives used.
 The second derivative matrix:
                          R1        R2        R3        R4        R5
           R1           0.40496
           R2           0.00483   0.34099
           R3           0.00483   0.00494   0.34099
           R4           0.00483   0.00180   0.00086   0.34099
           R5           0.00483   0.00086   0.00180   0.00494   0.34099
           A1           0.00883   0.00529  -0.01439  -0.00351   0.00560
           A2           0.00883  -0.01439   0.00529   0.00560  -0.00351
           A3          -0.01765   0.00910   0.00910  -0.00209  -0.00209
           A4           0.00883  -0.00351   0.00560   0.00529  -0.01439
           A5           0.00883   0.00560  -0.00351  -0.01439   0.00529
           A6          -0.01765  -0.00209  -0.00209   0.00910   0.00910
           D1           0.00000   0.00000   0.00000   0.00000   0.00000
           D2           0.00000   0.00000   0.00000   0.00000   0.00000
           D3           0.00000   0.00000   0.00000   0.00000   0.00000
           D4           0.00000   0.00000   0.00000   0.00000   0.00000
                          A1        A2        A3        A4        A5
           A1           0.07430
           A2          -0.03925   0.07430
           A3          -0.03505  -0.03505   0.07011
           A4          -0.01150   0.01283  -0.00133   0.07430
           A5           0.01283  -0.01150  -0.00133  -0.03925   0.07430
           A6          -0.00133  -0.00133   0.00267  -0.03505  -0.03505
           D1           0.00000   0.00000   0.00000   0.00000   0.00000
           D2           0.00000   0.00000   0.00000   0.00000   0.00000
           D3           0.00000   0.00000   0.00000   0.00000   0.00000
           D4           0.00000   0.00000   0.00000   0.00000   0.00000
                          A6        D1        D2        D3        D4
           A6           0.07011
           D1           0.00000  -0.01091
           D2           0.00000  -0.00028  -0.00955
           D3           0.00000  -0.00028   0.00898  -0.00955
           D4           0.00000   0.01034  -0.00028  -0.00028  -0.01091
 ITU=  0
     Eigenvalues ---   -0.02125  -0.01853  -0.00113   0.08877   0.09962
     Eigenvalues ---    0.10533   0.13377   0.33745   0.33922   0.34481
     Eigenvalues ---    0.34813   0.40926
 Eigenvalue     1 is  -2.13D-02 should be greater than     0.000000 Eigenvector:
                          D4        D1        D3        D2        A5
   1                   -0.70711   0.70711   0.00000   0.00000   0.00000
                          A1        A6        R1        A2        A3
   1                    0.00000   0.00000   0.00000   0.00000   0.00000
 Eigenvalue     2 is  -1.85D-02 should be greater than     0.000000 Eigenvector:
                          D3        D2        D1        D4        R5
   1                   -0.70711   0.70711   0.00000   0.00000   0.00000
                          A6        R3        R2        R4        A1
   1                    0.00000   0.00000   0.00000   0.00000   0.00000
 Eigenvalue     3 is  -1.13D-03 should be greater than     0.000000 Eigenvector:
                          D1        D2        D3        D4        A5
   1                    0.50000   0.50000   0.50000   0.50000   0.00000
                          A4        R3        R5        R4        A3
   1                    0.00000   0.00000   0.00000   0.00000   0.00000
 Angle between quadratic step and forces=  31.65 degrees.
 Linear search not attempted -- first point.
 Iteration  1 RMS(Cart)=  0.00079226 RMS(Int)=  0.00000023
 Iteration  2 RMS(Cart)=  0.00000023 RMS(Int)=  0.00000000
 ClnCor:  largest displacement from symmetrization is 2.44D-13 for atom     6.
 Variable       Old X    -DE/DX   Delta X   Delta X   Delta X     New X
                                 (Linear)    (Quad)   (Total)
    R1        2.72998  -0.00023   0.00000  -0.00039  -0.00039   2.72959
    R2        2.06403  -0.00001   0.00000  -0.00006  -0.00006   2.06397
    R3        2.06403  -0.00001   0.00000  -0.00006  -0.00006   2.06397
    R4        2.06403  -0.00001   0.00000  -0.00006  -0.00006   2.06397
    R5        2.06403  -0.00001   0.00000  -0.00006  -0.00006   2.06397
    A1        2.13046  -0.00007   0.00000  -0.00066  -0.00066   2.12981
    A2        2.13046  -0.00007   0.00000  -0.00066  -0.00066   2.12981
    A3        2.02226   0.00015   0.00000   0.00131   0.00131   2.02357
    A4        2.13046  -0.00007   0.00000  -0.00066  -0.00066   2.12981
    A5        2.13046  -0.00007   0.00000  -0.00066  -0.00066   2.12981
    A6        2.02226   0.00015   0.00000   0.00131   0.00131   2.02357
    D1        0.00000   0.00000   0.00000   0.00000   0.00000   0.00000
    D2        3.14159   0.00000   0.00000   0.00000   0.00000   3.14159
    D3        3.14159   0.00000   0.00000   0.00000   0.00000   3.14159
    D4        0.00000   0.00000   0.00000   0.00000   0.00000   0.00000
         Item               Value     Threshold  Converged?
 Maximum Force            0.000228     0.000450     YES
 RMS     Force            0.000089     0.000300     YES
 Maximum Displacement     0.001376     0.001800     YES
 RMS     Displacement     0.000792     0.001200     YES
 Predicted change in Energy=-3.393117D-07
 Optimization completed.
    -- Stationary point found.
                           ----------------------------
                           !   Optimized Parameters   !
                           ! (Angstroms and Degrees)  !
 --------------------------                            --------------------------
 ! Name  Definition              Value          Derivative Info.                !
 --------------------------------------------------------------------------------
 ! R1    R(1,2)                  1.4446         -DE/DX =   -0.0002              !
 ! R2    R(1,3)                  1.0922         -DE/DX =    0.0                 !
 ! R3    R(1,4)                  1.0922         -DE/DX =    0.0                 !
 ! R4    R(2,5)                  1.0922         -DE/DX =    0.0                 !
 ! R5    R(2,6)                  1.0922         -DE/DX =    0.0                 !
 ! A1    A(2,1,3)              122.0666         -DE/DX =   -0.0001              !
 ! A2    A(2,1,4)              122.0666         -DE/DX =   -0.0001              !
 ! A3    A(3,1,4)              115.8668         -DE/DX =    0.0001              !
 ! A4    A(1,2,5)              122.0666         -DE/DX =   -0.0001              !
 ! A5    A(1,2,6)              122.0666         -DE/DX =   -0.0001              !
 ! A6    A(5,2,6)              115.8668         -DE/DX =    0.0001              !
 ! D1    D(3,1,2,5)              0.0            -DE/DX =    0.0                 !
 ! D2    D(3,1,2,6)            180.0            -DE/DX =    0.0                 !
 ! D3    D(4,1,2,5)            180.0            -DE/DX =    0.0                 !
 ! D4    D(4,1,2,6)              0.0            -DE/DX =    0.0                 !
 --------------------------------------------------------------------------------
 GradGradGradGradGradGradGradGradGradGradGradGradGradGradGradGradGradGrad

 1\1\GINC-BUFALO\Freq\UB3LYP\6-31G(d)\C2H4(1-,2)\BETO\09-Apr-2021\0\\#N
  Geom=AllCheck Guess=TCheck SCRF=Check GenChk UB3LYP/6-31G(d) Freq\\et
 hylene anion\\-1,2\C,0.7223204967,0.,0.\C,-0.7223204967,0.,0.\H,1.3021
 956183,0.9255984223,0.\H,1.3021956183,-0.9255984223,0.\H,-1.3021956183
 ,0.9255984223,0.\H,-1.3021956183,-0.9255984223,0.\\Version=EM64L-G09Re
 vC.01\State=2-B2G\HF=-78.4762935\S2=0.753254\S2-1=0.\S2A=0.750008\RMSD
 =7.343e-10\RMSF=5.251e-05\ZeroPoint=0.0421632\Thermal=0.0451342\Dipole
 =0.,0.,0.\DipoleDeriv=-0.1712993,0.,0.,0.,0.0359912,0.,0.,0.,-0.850236
 6,-0.1712993,0.,0.,0.,0.0359912,0.,0.,0.,-0.8502366,-0.1643503,-0.1416
 263,0.,-0.1678357,-0.2679956,0.,0.,0.,0.1751183,-0.1643503,0.1416263,0
 .,0.1678357,-0.2679956,0.,0.,0.,0.1751183,-0.1643503,0.1416263,0.,0.16
 78357,-0.2679956,0.,0.,0.,0.1751183,-0.1643503,-0.1416263,0.,-0.167835
 7,-0.2679956,0.,0.,0.,0.1751183\Polar=36.5176176,0.,25.0318001,0.,0.,1
 0.0129389\PG=D02H [C2"(C1.C1),SG(H4)]\NImag=3\\0.62869505,0.,0.5709298
 9,0.,0.,-0.05717222,-0.36223912,0.,0.,0.62869505,0.,-0.08422629,0.,0.,
 0.57092989,0.,0.,0.03305199,0.,0.,-0.05717222,-0.12530146,-0.11700008,
 0.,-0.00792651,-0.02740785,0.,0.13056760,-0.11924251,-0.24436830,0.,0.
 00397463,0.00101650,0.,0.12992923,0.26078409,0.,0.,0.01854380,0.,0.,-0
 .00648369,0.,0.,-0.00685705,-0.12530146,0.11700008,0.,-0.00792651,0.02
 740785,0.,0.00816871,-0.01340548,0.,0.13056760,0.11924251,-0.24436830,
 0.,-0.00397463,0.00101650,0.,0.01340548,-0.02046979,0.,-0.12992923,0.2
 6078409,0.,0.,0.01854380,0.,0.,-0.00648369,0.,0.,-0.00609342,0.,0.,-0.
 00685705,-0.00792651,0.02740785,0.,-0.12530146,0.11700008,0.,0.0011470
 7,-0.00116454,0.,-0.00665541,0.00009133,0.,0.13056760,-0.00397463,0.00
 101650,0.,0.11924251,-0.24436830,0.,0.00116454,0.00150397,0.,0.0000913
 3,0.00153353,0.,-0.12992923,0.26078409,0.,0.,-0.00648369,0.,0.,0.01854
 380,0.,0.,0.00081621,0.,0.,0.00007414,0.,0.,-0.00685705,-0.00792651,-0
 .02740785,0.,-0.12530146,-0.11700008,0.,-0.00665541,-0.00009133,0.,0.0
 0114707,0.00116454,0.,0.00816871,0.01340548,0.,0.13056760,0.00397463,0
 .00101650,0.,-0.11924251,-0.24436830,0.,-0.00009133,0.00153353,0.,-0.0
 0116454,0.00150397,0.,-0.01340548,-0.02046979,0.,0.12992923,0.26078409
 ,0.,0.,-0.00648369,0.,0.,0.01854380,0.,0.,0.00007414,0.,0.,0.00081621,
 0.,0.,-0.00609342,0.,0.,-0.00685705\\0.00003264,0.,0.,-0.00003264,0.,0
 .,0.00009754,-0.00004856,0.,0.00009754,0.00004856,0.,-0.00009754,-0.00
 004856,0.,-0.00009754,0.00004856,0.\\\@


 IT IS BY EATING THE LIGHT OF A STAR THAT WE EXIST, 
 IN THE FINAL ANALYSIS, 
 JUST AS IT IS BY PERCEIVING THE LIGHT OF STARS
 THAT WE DEFINE THE WORLD AROUND US.

                                    -- GILBERT GROSVENOR
 Job cpu time:  0 days  0 hours  0 minutes 10.2 seconds.
 File lengths (MBytes):  RWF=      5 Int=      0 D2E=      0 Chk=      1 Scr=      1
 Normal termination of Gaussian 09 at Fri Apr  9 20:37:38 2021.
