 Entering Gaussian System, Link 0=g09
 Input=ethylene-neutral.com
 Output=ethylene-neutral.log
 Initial command:
 /home/beto/gaussian09/g09/l1.exe /home/beto/gaussian09/scratch/Gau-93938.inp -scrdir=/home/beto/gaussian09/scratch/
 Entering Link 1 = /home/beto/gaussian09/g09/l1.exe PID=     93940.
  
 Copyright (c) 1988,1990,1992,1993,1995,1998,2003,2009,2011,
            Gaussian, Inc.  All Rights Reserved.
  
 This is part of the Gaussian(R) 09 program.  It is based on
 the Gaussian(R) 03 system (copyright 2003, Gaussian, Inc.),
 the Gaussian(R) 98 system (copyright 1998, Gaussian, Inc.),
 the Gaussian(R) 94 system (copyright 1995, Gaussian, Inc.),
 the Gaussian 92(TM) system (copyright 1992, Gaussian, Inc.),
 the Gaussian 90(TM) system (copyright 1990, Gaussian, Inc.),
 the Gaussian 88(TM) system (copyright 1988, Gaussian, Inc.),
 the Gaussian 86(TM) system (copyright 1986, Carnegie Mellon
 University), and the Gaussian 82(TM) system (copyright 1983,
 Carnegie Mellon University). Gaussian is a federally registered
 trademark of Gaussian, Inc.
  
 This software contains proprietary and confidential information,
 including trade secrets, belonging to Gaussian, Inc.
  
 This software is provided under written license and may be
 used, copied, transmitted, or stored only in accord with that
 written license.
  
 The following legend is applicable only to US Government
 contracts under FAR:
  
                    RESTRICTED RIGHTS LEGEND
  
 Use, reproduction and disclosure by the US Government is
 subject to restrictions as set forth in subparagraphs (a)
 and (c) of the Commercial Computer Software - Restricted
 Rights clause in FAR 52.227-19.
  
 Gaussian, Inc.
 340 Quinnipiac St., Bldg. 40, Wallingford CT 06492
  
  
 ---------------------------------------------------------------
 Warning -- This program may not be used in any manner that
 competes with the business of Gaussian, Inc. or will provide
 assistance to any competitor of Gaussian, Inc.  The licensee
 of this program is prohibited from giving any competitor of
 Gaussian, Inc. access to this program.  By using this program,
 the user acknowledges that Gaussian, Inc. is engaged in the
 business of creating and licensing software in the field of
 computational chemistry and represents and warrants to the
 licensee that it is not a competitor of Gaussian, Inc. and that
 it will not use this program in any manner prohibited above.
 ---------------------------------------------------------------
  

 Cite this work as:
 Gaussian 09, Revision C.01,
 M. J. Frisch, G. W. Trucks, H. B. Schlegel, G. E. Scuseria, 
 M. A. Robb, J. R. Cheeseman, G. Scalmani, V. Barone, B. Mennucci, 
 G. A. Petersson, H. Nakatsuji, M. Caricato, X. Li, H. P. Hratchian, 
 A. F. Izmaylov, J. Bloino, G. Zheng, J. L. Sonnenberg, M. Hada, 
 M. Ehara, K. Toyota, R. Fukuda, J. Hasegawa, M. Ishida, T. Nakajima, 
 Y. Honda, O. Kitao, H. Nakai, T. Vreven, J. A. Montgomery, Jr., 
 J. E. Peralta, F. Ogliaro, M. Bearpark, J. J. Heyd, E. Brothers, 
 K. N. Kudin, V. N. Staroverov, T. Keith, R. Kobayashi, J. Normand, 
 K. Raghavachari, A. Rendell, J. C. Burant, S. S. Iyengar, J. Tomasi, 
 M. Cossi, N. Rega, J. M. Millam, M. Klene, J. E. Knox, J. B. Cross, 
 V. Bakken, C. Adamo, J. Jaramillo, R. Gomperts, R. E. Stratmann, 
 O. Yazyev, A. J. Austin, R. Cammi, C. Pomelli, J. W. Ochterski, 
 R. L. Martin, K. Morokuma, V. G. Zakrzewski, G. A. Voth, 
 P. Salvador, J. J. Dannenberg, S. Dapprich, A. D. Daniels, 
 O. Farkas, J. B. Foresman, J. V. Ortiz, J. Cioslowski, 
 and D. J. Fox, Gaussian, Inc., Wallingford CT, 2010.
 
 ******************************************
 Gaussian 09:  EM64L-G09RevC.01 23-Sep-2011
                 9-Apr-2021 
 ******************************************
 %NProcShared=4
 Will use up to    4 processors via shared memory.
 %Mem=2GB
 %chk=ethylene-neutral
 ---------------------------------------------
 # opt B3LYP/6-31G* freq=noraman int=ultrafine
 ---------------------------------------------
 1/14=-1,18=20,19=15,26=3,38=1/1,3;
 2/9=110,12=2,17=6,18=5,40=1/2;
 3/5=1,6=6,7=1,11=2,16=1,25=1,30=1,71=1,74=-5,75=-5/1,2,3;
 4//1;
 5/5=2,38=5/2;
 6/7=2,8=2,9=2,10=2,28=1/1;
 7//1,2,3,16;
 1/14=-1,18=20,19=15/3(2);
 2/9=110/2;
 99//99;
 2/9=110/2;
 3/5=1,6=6,7=1,11=2,16=1,25=1,30=1,71=1,74=-5,75=-5/1,2,3;
 4/5=5,16=3/1;
 5/5=2,38=5/2;
 7//1,2,3,16;
 1/14=-1,18=20,19=15/3(-5);
 2/9=110/2;
 6/7=2,8=2,9=2,10=2,19=2,28=1/1;
 99/9=1/99;
 ----------------
 ethylene neutral
 ----------------
 Charge =  0 Multiplicity = 1
 Symbolic Z-Matrix:
 C                     0.67275   0.        0. 
 C                    -0.67275   0.        0. 
 H                     1.24262   0.93481   0. 
 H                     1.24262  -0.93481   0. 
 H                    -1.24262   0.93481   0. 
 H                    -1.24262  -0.93481   0. 
 

 GradGradGradGradGradGradGradGradGradGradGradGradGradGradGradGradGradGrad
 Berny optimization.
 Initialization pass.
                           ----------------------------
                           !    Initial Parameters    !
                           ! (Angstroms and Degrees)  !
 --------------------------                            --------------------------
 ! Name  Definition              Value          Derivative Info.                !
 --------------------------------------------------------------------------------
 ! R1    R(1,2)                  1.3455         estimate D2E/DX2                !
 ! R2    R(1,3)                  1.0948         estimate D2E/DX2                !
 ! R3    R(1,4)                  1.0948         estimate D2E/DX2                !
 ! R4    R(2,5)                  1.0948         estimate D2E/DX2                !
 ! R5    R(2,6)                  1.0948         estimate D2E/DX2                !
 ! A1    A(2,1,3)              121.3672         estimate D2E/DX2                !
 ! A2    A(2,1,4)              121.3672         estimate D2E/DX2                !
 ! A3    A(3,1,4)              117.2656         estimate D2E/DX2                !
 ! A4    A(1,2,5)              121.3672         estimate D2E/DX2                !
 ! A5    A(1,2,6)              121.3672         estimate D2E/DX2                !
 ! A6    A(5,2,6)              117.2656         estimate D2E/DX2                !
 ! D1    D(3,1,2,5)              0.0            estimate D2E/DX2                !
 ! D2    D(3,1,2,6)            180.0            estimate D2E/DX2                !
 ! D3    D(4,1,2,5)            180.0            estimate D2E/DX2                !
 ! D4    D(4,1,2,6)              0.0            estimate D2E/DX2                !
 --------------------------------------------------------------------------------
 Trust Radius=3.00D-01 FncErr=1.00D-07 GrdErr=1.00D-06
 Number of steps in this run=     25 maximum allowed number of steps=    100.
 GradGradGradGradGradGradGradGradGradGradGradGradGradGradGradGradGradGrad

                          Input orientation:                          
 ---------------------------------------------------------------------
 Center     Atomic      Atomic             Coordinates (Angstroms)
 Number     Number       Type             X           Y           Z
 ---------------------------------------------------------------------
      1          6           0        0.672749    0.000000    0.000000
      2          6           0       -0.672749    0.000000    0.000000
      3          1           0        1.242623    0.934806    0.000000
      4          1           0        1.242623   -0.934806    0.000000
      5          1           0       -1.242623    0.934806    0.000000
      6          1           0       -1.242623   -0.934806    0.000000
 ---------------------------------------------------------------------
                    Distance matrix (angstroms):
                    1          2          3          4          5
     1  C    0.000000
     2  C    1.345498   0.000000
     3  H    1.094814   2.131317   0.000000
     4  H    1.094814   2.131317   1.869612   0.000000
     5  H    2.131317   1.094814   2.485246   3.109967   0.000000
     6  H    2.131317   1.094814   3.109967   2.485246   1.869612
                    6
     6  H    0.000000
 Stoichiometry    C2H4
 Framework group  D2H[C2"(C.C),SG(H4)]
 Deg. of freedom     3
 Full point group                 D2H     NOp   8
 Largest Abelian subgroup         D2H     NOp   8
 Largest concise Abelian subgroup D2      NOp   4
                         Standard orientation:                         
 ---------------------------------------------------------------------
 Center     Atomic      Atomic             Coordinates (Angstroms)
 Number     Number       Type             X           Y           Z
 ---------------------------------------------------------------------
      1          6           0        0.000000    0.000000    0.672749
      2          6           0        0.000000    0.000000   -0.672749
      3          1           0        0.000000    0.934806    1.242623
      4          1           0        0.000000   -0.934806    1.242623
      5          1           0        0.000000    0.934806   -1.242623
      6          1           0        0.000000   -0.934806   -1.242623
 ---------------------------------------------------------------------
 Rotational constants (GHZ):    143.4594228     29.5768688     24.5213330
 Standard basis: 6-31G(d) (6D, 7F)
 There are    10 symmetry adapted basis functions of AG  symmetry.
 There are     1 symmetry adapted basis functions of B1G symmetry.
 There are     3 symmetry adapted basis functions of B2G symmetry.
 There are     5 symmetry adapted basis functions of B3G symmetry.
 There are     1 symmetry adapted basis functions of AU  symmetry.
 There are    10 symmetry adapted basis functions of B1U symmetry.
 There are     5 symmetry adapted basis functions of B2U symmetry.
 There are     3 symmetry adapted basis functions of B3U symmetry.
 Integral buffers will be    131072 words long.
 Raffenetti 2 integral format.
 Two-electron integral symmetry is turned on.
    38 basis functions,    72 primitive gaussians,    38 cartesian basis functions
     8 alpha electrons        8 beta electrons
       nuclear repulsion energy        33.0501025730 Hartrees.
 NAtoms=    6 NActive=    6 NUniq=    2 SFac= 4.00D+00 NAtFMM=   60 NAOKFM=F Big=F
 One-electron integrals computed using PRISM.
 NBasis=    38 RedAO= T  NBF=    10     1     3     5     1    10     5     3
 NBsUse=    38 1.00D-06 NBFU=    10     1     3     5     1    10     5     3
 Harris functional with IExCor=  402 diagonalized for initial guess.
 ExpMin= 1.61D-01 ExpMax= 3.05D+03 ExpMxC= 4.57D+02 IAcc=3 IRadAn=         5 AccDes= 0.00D+00
 HarFok:  IExCor=  402 AccDes= 0.00D+00 IRadAn=         5 IDoV= 1
 ScaDFX=  1.000000  1.000000  1.000000  1.000000
 FoFCou: FMM=F IPFlag=           0 FMFlag=      100000 FMFlg1=           0
         NFxFlg=           0 DoJE=T BraDBF=F KetDBF=T FulRan=T
         Omega=  0.000000  0.000000  1.000000  0.000000  0.000000 ICntrl=     500 IOpCl=  0
         NMat0=    1 NMatS0=    1 NMatT0=    0 NMatD0=    1 NMtDS0=    0 NMtDT0=    0
         I1Cent=           4 NGrid=           0.
 Petite list used in FoFCou.
 Initial guess orbital symmetries:
       Occupied  (AG) (B1U) (AG) (B1U) (B2U) (AG) (B3G) (B3U)
       Virtual   (B2G) (B2U) (AG) (B1U) (B3G) (B1U) (AG) (B3U)
                 (B2U) (B2G) (B1U) (AG) (B2U) (B3G) (B1U) (AG)
                 (B1U) (B3G) (B3U) (B1G) (AU) (AG) (B2U) (AG) (B1U)
                 (B2G) (B3G) (B1U) (AG) (B1U)
 The electronic state of the initial guess is 1-AG.
 Requested convergence on RMS density matrix=1.00D-08 within 128 cycles.
 Requested convergence on MAX density matrix=1.00D-06.
 Requested convergence on             energy=1.00D-06.
 No special actions if energy rises.
 Keep R1 ints in memory in canonical form, NReq=1292479.
 Integral accuracy reduced to 1.0D-05 until final iterations.
 Initial convergence to 1.0D-05 achieved.  Increase integral accuracy.
 SCF Done:  E(RB3LYP) =  -78.5870403230     A.U. after    9 cycles
             Convg  =    0.7116D-09             -V/T =  2.0115

 **********************************************************************

            Population analysis using the SCF density.

 **********************************************************************

 Orbital symmetries:
       Occupied  (AG) (B1U) (AG) (B1U) (B2U) (AG) (B3G) (B3U)
       Virtual   (B2G) (AG) (B2U) (B1U) (B3G) (B1U) (AG) (B3U)
                 (B2U) (B2G) (AG) (B1U) (B2U) (B3G) (B1U) (AG)
                 (B1U) (B3G) (B3U) (B1G) (AU) (AG) (B2U) (AG) (B1U)
                 (B2G) (B3G) (B1U) (AG) (B1U)
 The electronic state is 1-AG.
 Alpha  occ. eigenvalues --  -10.18761 -10.18681  -0.75104  -0.57552  -0.46330
 Alpha  occ. eigenvalues --   -0.41225  -0.35466  -0.26436
 Alpha virt. eigenvalues --    0.01574   0.11915   0.13907   0.15446   0.24143
 Alpha virt. eigenvalues --    0.32656   0.48399   0.55008   0.57078   0.63532
 Alpha virt. eigenvalues --    0.65347   0.68955   0.84660   0.86602   0.92229
 Alpha virt. eigenvalues --    0.93262   1.09945   1.21859   1.45902   1.55000
 Alpha virt. eigenvalues --    1.82748   1.89064   1.97231   2.07642   2.27580
 Alpha virt. eigenvalues --    2.37209   2.66749   2.69126   4.08746   4.24511
          Condensed to atoms (all electrons):
              1          2          3          4          5          6
     1  C    4.926193   0.677959   0.376415   0.376415  -0.035443  -0.035443
     2  C    0.677959   4.926193  -0.035443  -0.035443   0.376415   0.376415
     3  H    0.376415  -0.035443   0.560918  -0.041584  -0.008223   0.004870
     4  H    0.376415  -0.035443  -0.041584   0.560918   0.004870  -0.008223
     5  H   -0.035443   0.376415  -0.008223   0.004870   0.560918  -0.041584
     6  H   -0.035443   0.376415   0.004870  -0.008223  -0.041584   0.560918
 Mulliken atomic charges:
              1
     1  C   -0.286095
     2  C   -0.286095
     3  H    0.143047
     4  H    0.143047
     5  H    0.143047
     6  H    0.143047
 Sum of Mulliken atomic charges =   0.00000
 Mulliken charges with hydrogens summed into heavy atoms:
              1
     1  C    0.000000
     2  C    0.000000
 Sum of Mulliken charges with hydrogens summed into heavy atoms =   0.00000
 Electronic spatial extent (au):  <R**2>=             83.1061
 Charge=              0.0000 electrons
 Dipole moment (field-independent basis, Debye):
    X=              0.0000    Y=              0.0000    Z=              0.0000  Tot=              0.0000
 Quadrupole moment (field-independent basis, Debye-Ang):
   XX=            -15.1083   YY=            -12.0778   ZZ=            -12.0517
   XY=              0.0000   XZ=              0.0000   YZ=              0.0000
 Traceless Quadrupole moment (field-independent basis, Debye-Ang):
   XX=             -2.0290   YY=              1.0015   ZZ=              1.0276
   XY=              0.0000   XZ=              0.0000   YZ=              0.0000
 Octapole moment (field-independent basis, Debye-Ang**2):
  XXX=              0.0000  YYY=              0.0000  ZZZ=              0.0000  XYY=              0.0000
  XXY=              0.0000  XXZ=              0.0000  XZZ=              0.0000  YZZ=              0.0000
  YYZ=              0.0000  XYZ=              0.0000
 Hexadecapole moment (field-independent basis, Debye-Ang**3):
 XXXX=            -15.7180 YYYY=            -26.4597 ZZZZ=            -67.8629 XXXY=              0.0000
 XXXZ=              0.0000 YYYX=              0.0000 YYYZ=              0.0000 ZZZX=              0.0000
 ZZZY=              0.0000 XXYY=             -7.6280 XXZZ=            -14.8062 YYZZ=            -13.3532
 XXYZ=              0.0000 YYXZ=              0.0000 ZZXY=              0.0000
 N-N= 3.305010257302D+01 E-N=-2.474266800245D+02  KE= 7.769063327720D+01
 Symmetry AG   KE= 3.733431118628D+01
 Symmetry B1G  KE= 2.924421308110D-34
 Symmetry B2G  KE= 3.178945498789D-33
 Symmetry B3G  KE= 2.082666276409D+00
 Symmetry AU   KE= 3.265373236145D-34
 Symmetry B1U  KE= 3.432833957731D+01
 Symmetry B2U  KE= 1.865601924692D+00
 Symmetry B3U  KE= 2.079714312508D+00
 Calling FoFJK, ICntrl=      2127 FMM=F ISym2X=1 I1Cent= 0 IOpClX= 0 NMat=1 NMatS=1 NMatT=0.
 ***** Axes restored to original set *****
 -------------------------------------------------------------------
 Center     Atomic                   Forces (Hartrees/Bohr)
 Number     Number              X              Y              Z
 -------------------------------------------------------------------
      1        6          -0.012907728    0.000000000    0.000000000
      2        6           0.012907728    0.000000000    0.000000000
      3        1          -0.001772216   -0.005113140    0.000000000
      4        1          -0.001772216    0.005113140    0.000000000
      5        1           0.001772216   -0.005113140    0.000000000
      6        1           0.001772216    0.005113140    0.000000000
 -------------------------------------------------------------------
 Cartesian Forces:  Max     0.012907728 RMS     0.005001992

 GradGradGradGradGradGradGradGradGradGradGradGradGradGradGradGradGradGrad
 Berny optimization.
 Internal  Forces:  Max     0.016452160 RMS     0.005099440
 Search for a local minimum.
 Step number   1 out of a maximum of   25
 All quantities printed in internal units (Hartrees-Bohrs-Radians)
 Mixed Optimization -- RFO/linear search
 Second derivative matrix not updated -- first step.
 The second derivative matrix:
                          R1        R2        R3        R4        R5
           R1           0.55990
           R2           0.00000   0.34262
           R3           0.00000   0.00000   0.34262
           R4           0.00000   0.00000   0.00000   0.34262
           R5           0.00000   0.00000   0.00000   0.00000   0.34262
           A1           0.00000   0.00000   0.00000   0.00000   0.00000
           A2           0.00000   0.00000   0.00000   0.00000   0.00000
           A3           0.00000   0.00000   0.00000   0.00000   0.00000
           A4           0.00000   0.00000   0.00000   0.00000   0.00000
           A5           0.00000   0.00000   0.00000   0.00000   0.00000
           A6           0.00000   0.00000   0.00000   0.00000   0.00000
           D1           0.00000   0.00000   0.00000   0.00000   0.00000
           D2           0.00000   0.00000   0.00000   0.00000   0.00000
           D3           0.00000   0.00000   0.00000   0.00000   0.00000
           D4           0.00000   0.00000   0.00000   0.00000   0.00000
                          A1        A2        A3        A4        A5
           A1           0.16000
           A2           0.00000   0.16000
           A3           0.00000   0.00000   0.16000
           A4           0.00000   0.00000   0.00000   0.16000
           A5           0.00000   0.00000   0.00000   0.00000   0.16000
           A6           0.00000   0.00000   0.00000   0.00000   0.00000
           D1           0.00000   0.00000   0.00000   0.00000   0.00000
           D2           0.00000   0.00000   0.00000   0.00000   0.00000
           D3           0.00000   0.00000   0.00000   0.00000   0.00000
           D4           0.00000   0.00000   0.00000   0.00000   0.00000
                          A6        D1        D2        D3        D4
           A6           0.16000
           D1           0.00000   0.02810
           D2           0.00000   0.00000   0.02810
           D3           0.00000   0.00000   0.00000   0.02810
           D4           0.00000   0.00000   0.00000   0.00000   0.02810
 ITU=  0
     Eigenvalues ---    0.02810   0.02810   0.02810   0.16000   0.16000
     Eigenvalues ---    0.16000   0.16000   0.34262   0.34262   0.34262
     Eigenvalues ---    0.34262   0.55990
 RFO step:  Lambda=-8.55156240D-04 EMin= 2.80971271D-02
 Linear search not attempted -- first point.
 Iteration  1 RMS(Cart)=  0.01309623 RMS(Int)=  0.00003527
 Iteration  2 RMS(Cart)=  0.00004286 RMS(Int)=  0.00000000
 Iteration  3 RMS(Cart)=  0.00000000 RMS(Int)=  0.00000000
 ClnCor:  largest displacement from symmetrization is 5.25D-14 for atom     1.
 Variable       Old X    -DE/DX   Delta X   Delta X   Delta X     New X
                                 (Linear)    (Quad)   (Total)
    R1        2.54262  -0.01645   0.00000  -0.02934  -0.02934   2.51328
    R2        2.06890  -0.00529   0.00000  -0.01540  -0.01540   2.05350
    R3        2.06890  -0.00529   0.00000  -0.01540  -0.01540   2.05350
    R4        2.06890  -0.00529   0.00000  -0.01540  -0.01540   2.05350
    R5        2.06890  -0.00529   0.00000  -0.01540  -0.01540   2.05350
    A1        2.11826   0.00079   0.00000   0.00492   0.00492   2.12318
    A2        2.11826   0.00079   0.00000   0.00492   0.00492   2.12318
    A3        2.04667  -0.00158   0.00000  -0.00985  -0.00985   2.03682
    A4        2.11826   0.00079   0.00000   0.00492   0.00492   2.12318
    A5        2.11826   0.00079   0.00000   0.00492   0.00492   2.12318
    A6        2.04667  -0.00158   0.00000  -0.00985  -0.00985   2.03682
    D1        0.00000   0.00000   0.00000   0.00000   0.00000   0.00000
    D2        3.14159   0.00000   0.00000   0.00000   0.00000   3.14159
    D3        3.14159   0.00000   0.00000   0.00000   0.00000   3.14159
    D4        0.00000   0.00000   0.00000   0.00000   0.00000   0.00000
         Item               Value     Threshold  Converged?
 Maximum Force            0.016452     0.000450     NO 
 RMS     Force            0.005099     0.000300     NO 
 Maximum Displacement     0.018430     0.001800     NO 
 RMS     Displacement     0.013116     0.001200     NO 
 Predicted change in Energy=-4.284779D-04
 GradGradGradGradGradGradGradGradGradGradGradGradGradGradGradGradGradGrad

                          Input orientation:                          
 ---------------------------------------------------------------------
 Center     Atomic      Atomic             Coordinates (Angstroms)
 Number     Number       Type             X           Y           Z
 ---------------------------------------------------------------------
      1          6           0        0.664986    0.000000    0.000000
      2          6           0       -0.664986    0.000000    0.000000
      3          1           0        1.235180    0.925053    0.000000
      4          1           0        1.235180   -0.925053    0.000000
      5          1           0       -1.235180    0.925053    0.000000
      6          1           0       -1.235180   -0.925053    0.000000
 ---------------------------------------------------------------------
                    Distance matrix (angstroms):
                    1          2          3          4          5
     1  C    0.000000
     2  C    1.329972   0.000000
     3  H    1.086667   2.113376   0.000000
     4  H    1.086667   2.113376   1.850107   0.000000
     5  H    2.113376   1.086667   2.470361   3.086353   0.000000
     6  H    2.113376   1.086667   3.086353   2.470361   1.850107
                    6
     6  H    0.000000
 Stoichiometry    C2H4
 Framework group  D2H[C2"(C.C),SG(H4)]
 Deg. of freedom     3
 Full point group                 D2H     NOp   8
 Largest Abelian subgroup         D2H     NOp   8
 Largest concise Abelian subgroup D2      NOp   4
                         Standard orientation:                         
 ---------------------------------------------------------------------
 Center     Atomic      Atomic             Coordinates (Angstroms)
 Number     Number       Type             X           Y           Z
 ---------------------------------------------------------------------
      1          6           0        0.000000    0.000000    0.664986
      2          6           0        0.000000    0.000000   -0.664986
      3          1           0        0.000000    0.925053    1.235180
      4          1           0        0.000000   -0.925053    1.235180
      5          1           0        0.000000    0.925053   -1.235180
      6          1           0        0.000000   -0.925053   -1.235180
 ---------------------------------------------------------------------
 Rotational constants (GHZ):    146.5002725     30.1477717     25.0025795
 Standard basis: 6-31G(d) (6D, 7F)
 There are    10 symmetry adapted basis functions of AG  symmetry.
 There are     1 symmetry adapted basis functions of B1G symmetry.
 There are     3 symmetry adapted basis functions of B2G symmetry.
 There are     5 symmetry adapted basis functions of B3G symmetry.
 There are     1 symmetry adapted basis functions of AU  symmetry.
 There are    10 symmetry adapted basis functions of B1U symmetry.
 There are     5 symmetry adapted basis functions of B2U symmetry.
 There are     3 symmetry adapted basis functions of B3U symmetry.
 Integral buffers will be    131072 words long.
 Raffenetti 2 integral format.
 Two-electron integral symmetry is turned on.
    38 basis functions,    72 primitive gaussians,    38 cartesian basis functions
     8 alpha electrons        8 beta electrons
       nuclear repulsion energy        33.3640855022 Hartrees.
 NAtoms=    6 NActive=    6 NUniq=    2 SFac= 4.00D+00 NAtFMM=   60 NAOKFM=F Big=F
 One-electron integrals computed using PRISM.
 NBasis=    38 RedAO= T  NBF=    10     1     3     5     1    10     5     3
 NBsUse=    38 1.00D-06 NBFU=    10     1     3     5     1    10     5     3
 Initial guess read from the read-write file.
 B after Tr=     0.000000    0.000000    0.000000
         Rot=    1.000000    0.000000    0.000000    0.000000 Ang=   0.00 deg.
 Initial guess orbital symmetries:
       Occupied  (AG) (B1U) (AG) (B1U) (B2U) (AG) (B3G) (B3U)
       Virtual   (B2G) (AG) (B2U) (B1U) (B3G) (B1U) (AG) (B3U)
                 (B2U) (B2G) (AG) (B1U) (B2U) (B3G) (B1U) (AG)
                 (B1U) (B3G) (B3U) (B1G) (AU) (AG) (B2U) (AG) (B1U)
                 (B2G) (B3G) (B1U) (AG) (B1U)
 Requested convergence on RMS density matrix=1.00D-08 within 128 cycles.
 Requested convergence on MAX density matrix=1.00D-06.
 Requested convergence on             energy=1.00D-06.
 No special actions if energy rises.
 Keep R1 ints in memory in canonical form, NReq=1292479.
 SCF Done:  E(RB3LYP) =  -78.5874454202     A.U. after    7 cycles
             Convg  =    0.7652D-09             -V/T =  2.0104
 Calling FoFJK, ICntrl=      2127 FMM=F ISym2X=1 I1Cent= 0 IOpClX= 0 NMat=1 NMatS=1 NMatT=0.
 ***** Axes restored to original set *****
 -------------------------------------------------------------------
 Center     Atomic                   Forces (Hartrees/Bohr)
 Number     Number              X              Y              Z
 -------------------------------------------------------------------
      1        6           0.000096017    0.000000000    0.000000000
      2        6          -0.000096017    0.000000000    0.000000000
      3        1           0.000821166    0.000085170    0.000000000
      4        1           0.000821166   -0.000085170    0.000000000
      5        1          -0.000821166    0.000085170    0.000000000
      6        1          -0.000821166   -0.000085170    0.000000000
 -------------------------------------------------------------------
 Cartesian Forces:  Max     0.000821166 RMS     0.000390492

 GradGradGradGradGradGradGradGradGradGradGradGradGradGradGradGradGradGrad
 Berny optimization.
 Using GEDIIS/GDIIS optimizer.
 Internal  Forces:  Max     0.001738350 RMS     0.000655380
 Search for a local minimum.
 Step number   2 out of a maximum of   25
 All quantities printed in internal units (Hartrees-Bohrs-Radians)
 Mixed Optimization -- En-DIIS/RFO-DIIS
 Update second derivatives using D2CorX and points    1    2
 DE= -4.05D-04 DEPred=-4.28D-04 R= 9.45D-01
 SS=  1.41D+00  RLast= 4.58D-02 DXNew= 5.0454D-01 1.3747D-01
 Trust test= 9.45D-01 RLast= 4.58D-02 DXMaxT set to 3.00D-01
 The second derivative matrix:
                          R1        R2        R3        R4        R5
           R1           0.60703
           R2           0.01414   0.34685
           R3           0.01414   0.00422   0.34685
           R4           0.01414   0.00422   0.00422   0.34685
           R5           0.01414   0.00422   0.00422   0.00422   0.34685
           A1           0.00829   0.00268   0.00268   0.00268   0.00268
           A2           0.00829   0.00268   0.00268   0.00268   0.00268
           A3          -0.01658  -0.00536  -0.00536  -0.00536  -0.00536
           A4           0.00829   0.00268   0.00268   0.00268   0.00268
           A5           0.00829   0.00268   0.00268   0.00268   0.00268
           A6          -0.01658  -0.00536  -0.00536  -0.00536  -0.00536
           D1           0.00000   0.00000   0.00000   0.00000   0.00000
           D2           0.00000   0.00000   0.00000   0.00000   0.00000
           D3           0.00000   0.00000   0.00000   0.00000   0.00000
           D4           0.00000   0.00000   0.00000   0.00000   0.00000
                          A1        A2        A3        A4        A5
           A1           0.15940
           A2          -0.00060   0.15940
           A3           0.00119   0.00119   0.15761
           A4          -0.00060  -0.00060   0.00119   0.15940
           A5          -0.00060  -0.00060   0.00119  -0.00060   0.15940
           A6           0.00119   0.00119  -0.00239   0.00119   0.00119
           D1           0.00000   0.00000   0.00000   0.00000   0.00000
           D2           0.00000   0.00000   0.00000   0.00000   0.00000
           D3           0.00000   0.00000   0.00000   0.00000   0.00000
           D4           0.00000   0.00000   0.00000   0.00000   0.00000
                          A6        D1        D2        D3        D4
           A6           0.15761
           D1           0.00000   0.02810
           D2           0.00000   0.00000   0.02810
           D3           0.00000   0.00000   0.00000   0.02810
           D4           0.00000   0.00000   0.00000   0.00000   0.02810
 ITU=  1  0
 Use linear search instead of GDIIS.
     Eigenvalues ---    0.02810   0.02810   0.02810   0.14967   0.16000
     Eigenvalues ---    0.16000   0.16000   0.34262   0.34262   0.34262
     Eigenvalues ---    0.35744   0.61226
 RFO step:  Lambda=-1.77225999D-05 EMin= 2.80971271D-02
 Quartic linear search produced a step of -0.05904.
 Iteration  1 RMS(Cart)=  0.00355420 RMS(Int)=  0.00000423
 Iteration  2 RMS(Cart)=  0.00000430 RMS(Int)=  0.00000000
 Iteration  3 RMS(Cart)=  0.00000000 RMS(Int)=  0.00000000
 ClnCor:  largest displacement from symmetrization is 5.36D-14 for atom     1.
 Variable       Old X    -DE/DX   Delta X   Delta X   Delta X     New X
                                 (Linear)    (Quad)   (Total)
    R1        2.51328   0.00174   0.00173   0.00054   0.00227   2.51556
    R2        2.05350   0.00050   0.00091   0.00012   0.00103   2.05453
    R3        2.05350   0.00050   0.00091   0.00012   0.00103   2.05453
    R4        2.05350   0.00050   0.00091   0.00012   0.00103   2.05453
    R5        2.05350   0.00050   0.00091   0.00012   0.00103   2.05453
    A1        2.12318   0.00045  -0.00029   0.00305   0.00276   2.12594
    A2        2.12318   0.00045  -0.00029   0.00305   0.00276   2.12594
    A3        2.03682  -0.00090   0.00058  -0.00611  -0.00552   2.03130
    A4        2.12318   0.00045  -0.00029   0.00305   0.00276   2.12594
    A5        2.12318   0.00045  -0.00029   0.00305   0.00276   2.12594
    A6        2.03682  -0.00090   0.00058  -0.00611  -0.00552   2.03130
    D1        0.00000   0.00000   0.00000   0.00000   0.00000   0.00000
    D2        3.14159   0.00000   0.00000   0.00000   0.00000   3.14159
    D3        3.14159   0.00000   0.00000   0.00000   0.00000   3.14159
    D4        0.00000   0.00000   0.00000   0.00000   0.00000   0.00000
         Item               Value     Threshold  Converged?
 Maximum Force            0.001738     0.000450     NO 
 RMS     Force            0.000655     0.000300     NO 
 Maximum Displacement     0.006503     0.001800     NO 
 RMS     Displacement     0.003555     0.001200     NO 
 Predicted change in Energy=-1.042070D-05
 GradGradGradGradGradGradGradGradGradGradGradGradGradGradGradGradGradGrad

                          Input orientation:                          
 ---------------------------------------------------------------------
 Center     Atomic      Atomic             Coordinates (Angstroms)
 Number     Number       Type             X           Y           Z
 ---------------------------------------------------------------------
      1          6           0        0.665588    0.000000    0.000000
      2          6           0       -0.665588    0.000000    0.000000
      3          1           0        1.238621    0.923937    0.000000
      4          1           0        1.238621   -0.923937    0.000000
      5          1           0       -1.238621    0.923937    0.000000
      6          1           0       -1.238621   -0.923937    0.000000
 ---------------------------------------------------------------------
                    Distance matrix (angstroms):
                    1          2          3          4          5
     1  C    0.000000
     2  C    1.331176   0.000000
     3  H    1.087211   2.116524   0.000000
     4  H    1.087211   2.116524   1.847874   0.000000
     5  H    2.116524   1.087211   2.477243   3.090529   0.000000
     6  H    2.116524   1.087211   3.090529   2.477243   1.847874
                    6
     6  H    0.000000
 Stoichiometry    C2H4
 Framework group  D2H[C2"(C.C),SG(H4)]
 Deg. of freedom     3
 Full point group                 D2H     NOp   8
 Largest Abelian subgroup         D2H     NOp   8
 Largest concise Abelian subgroup D2      NOp   4
                         Standard orientation:                         
 ---------------------------------------------------------------------
 Center     Atomic      Atomic             Coordinates (Angstroms)
 Number     Number       Type             X           Y           Z
 ---------------------------------------------------------------------
      1          6           0        0.000000    0.000000    0.665588
      2          6           0        0.000000    0.000000   -0.665588
      3          1           0        0.000000    0.923937    1.238621
      4          1           0        0.000000   -0.923937    1.238621
      5          1           0        0.000000    0.923937   -1.238621
      6          1           0        0.000000   -0.923937   -1.238621
 ---------------------------------------------------------------------
 Rotational constants (GHZ):    146.8545106     30.0517996     24.9467773
 Standard basis: 6-31G(d) (6D, 7F)
 There are    10 symmetry adapted basis functions of AG  symmetry.
 There are     1 symmetry adapted basis functions of B1G symmetry.
 There are     3 symmetry adapted basis functions of B2G symmetry.
 There are     5 symmetry adapted basis functions of B3G symmetry.
 There are     1 symmetry adapted basis functions of AU  symmetry.
 There are    10 symmetry adapted basis functions of B1U symmetry.
 There are     5 symmetry adapted basis functions of B2U symmetry.
 There are     3 symmetry adapted basis functions of B3U symmetry.
 Integral buffers will be    131072 words long.
 Raffenetti 2 integral format.
 Two-electron integral symmetry is turned on.
    38 basis functions,    72 primitive gaussians,    38 cartesian basis functions
     8 alpha electrons        8 beta electrons
       nuclear repulsion energy        33.3353889919 Hartrees.
 NAtoms=    6 NActive=    6 NUniq=    2 SFac= 4.00D+00 NAtFMM=   60 NAOKFM=F Big=F
 One-electron integrals computed using PRISM.
 NBasis=    38 RedAO= T  NBF=    10     1     3     5     1    10     5     3
 NBsUse=    38 1.00D-06 NBFU=    10     1     3     5     1    10     5     3
 Initial guess read from the read-write file.
 B after Tr=     0.000000    0.000000    0.000000
         Rot=    1.000000    0.000000    0.000000    0.000000 Ang=   0.00 deg.
 Initial guess orbital symmetries:
       Occupied  (AG) (B1U) (AG) (B1U) (B2U) (AG) (B3G) (B3U)
       Virtual   (B2G) (AG) (B2U) (B1U) (B3G) (B1U) (AG) (B3U)
                 (B2U) (B2G) (AG) (B1U) (B2U) (B3G) (B1U) (AG)
                 (B1U) (B3G) (B3U) (B1G) (AU) (AG) (B2U) (AG) (B1U)
                 (B2G) (B3G) (B1U) (AG) (B1U)
 Requested convergence on RMS density matrix=1.00D-08 within 128 cycles.
 Requested convergence on MAX density matrix=1.00D-06.
 Requested convergence on             energy=1.00D-06.
 No special actions if energy rises.
 Keep R1 ints in memory in canonical form, NReq=1292479.
 SCF Done:  E(RB3LYP) =  -78.5874578385     A.U. after    6 cycles
             Convg  =    0.2085D-08             -V/T =  2.0105
 Calling FoFJK, ICntrl=      2127 FMM=F ISym2X=1 I1Cent= 0 IOpClX= 0 NMat=1 NMatS=1 NMatT=0.
 ***** Axes restored to original set *****
 -------------------------------------------------------------------
 Center     Atomic                   Forces (Hartrees/Bohr)
 Number     Number              X              Y              Z
 -------------------------------------------------------------------
      1        6          -0.000574899    0.000000000    0.000000000
      2        6           0.000574899    0.000000000    0.000000000
      3        1           0.000221019    0.000054883    0.000000000
      4        1           0.000221019   -0.000054883    0.000000000
      5        1          -0.000221019    0.000054883    0.000000000
      6        1          -0.000221019   -0.000054883    0.000000000
 -------------------------------------------------------------------
 Cartesian Forces:  Max     0.000574899 RMS     0.000219654

 GradGradGradGradGradGradGradGradGradGradGradGradGradGradGradGradGradGrad
 Berny optimization.
 Using GEDIIS/GDIIS optimizer.
 Internal  Forces:  Max     0.000217643 RMS     0.000133218
 Search for a local minimum.
 Step number   3 out of a maximum of   25
 All quantities printed in internal units (Hartrees-Bohrs-Radians)
 Mixed Optimization -- En-DIIS/RFO-DIIS
 Swaping is turned off.
 Update second derivatives using D2CorX and points    1    2    3
 DE= -1.24D-05 DEPred=-1.04D-05 R= 1.19D+00
 SS=  1.41D+00  RLast= 1.00D-02 DXNew= 5.0454D-01 3.0140D-02
 Trust test= 1.19D+00 RLast= 1.00D-02 DXMaxT set to 3.00D-01
 The second derivative matrix:
                          R1        R2        R3        R4        R5
           R1           0.65927
           R2           0.01033   0.34297
           R3           0.01033   0.00035   0.34297
           R4           0.01033   0.00035   0.00035   0.34297
           R5           0.01033   0.00035   0.00035   0.00035   0.34297
           A1           0.00993  -0.00111  -0.00111  -0.00111  -0.00111
           A2           0.00993  -0.00111  -0.00111  -0.00111  -0.00111
           A3          -0.01987   0.00221   0.00221   0.00221   0.00221
           A4           0.00993  -0.00111  -0.00111  -0.00111  -0.00111
           A5           0.00993  -0.00111  -0.00111  -0.00111  -0.00111
           A6          -0.01987   0.00221   0.00221   0.00221   0.00221
           D1           0.00000   0.00000   0.00000   0.00000   0.00000
           D2           0.00000   0.00000   0.00000   0.00000   0.00000
           D3           0.00000   0.00000   0.00000   0.00000   0.00000
           D4           0.00000   0.00000   0.00000   0.00000   0.00000
                          A1        A2        A3        A4        A5
           A1           0.15635
           A2          -0.00365   0.15635
           A3           0.00729   0.00729   0.14541
           A4          -0.00365  -0.00365   0.00729   0.15635
           A5          -0.00365  -0.00365   0.00729  -0.00365   0.15635
           A6           0.00729   0.00729  -0.01459   0.00729   0.00729
           D1           0.00000   0.00000   0.00000   0.00000   0.00000
           D2           0.00000   0.00000   0.00000   0.00000   0.00000
           D3           0.00000   0.00000   0.00000   0.00000   0.00000
           D4           0.00000   0.00000   0.00000   0.00000   0.00000
                          A6        D1        D2        D3        D4
           A6           0.14541
           D1           0.00000   0.02810
           D2           0.00000   0.00000   0.02810
           D3           0.00000   0.00000   0.00000   0.02810
           D4           0.00000   0.00000   0.00000   0.00000   0.02810
 ITU=  1  1  0
     Eigenvalues ---    0.02810   0.02810   0.02810   0.11371   0.16000
     Eigenvalues ---    0.16000   0.16000   0.34262   0.34262   0.34262
     Eigenvalues ---    0.34308   0.66272
 En-DIIS/RFO-DIIS IScMMF=        0 using points:     3    2
 RFO step:  Lambda=-6.49213979D-07.
 DidBck=F Rises=F RFO-DIIS coefs:    1.23531   -0.23531
 Iteration  1 RMS(Cart)=  0.00098783 RMS(Int)=  0.00000057
 Iteration  2 RMS(Cart)=  0.00000059 RMS(Int)=  0.00000000
 ClnCor:  largest displacement from symmetrization is 6.69D-14 for atom     6.
 Variable       Old X    -DE/DX   Delta X   Delta X   Delta X     New X
                                  (DIIS)     (GDIIS)  (Total)
    R1        2.51556  -0.00013   0.00054  -0.00095  -0.00041   2.51514
    R2        2.05453   0.00016   0.00024   0.00028   0.00052   2.05506
    R3        2.05453   0.00016   0.00024   0.00028   0.00052   2.05506
    R4        2.05453   0.00016   0.00024   0.00028   0.00052   2.05506
    R5        2.05453   0.00016   0.00024   0.00028   0.00052   2.05506
    A1        2.12594   0.00011   0.00065   0.00034   0.00099   2.12693
    A2        2.12594   0.00011   0.00065   0.00034   0.00099   2.12693
    A3        2.03130  -0.00022  -0.00130  -0.00068  -0.00198   2.02932
    A4        2.12594   0.00011   0.00065   0.00034   0.00099   2.12693
    A5        2.12594   0.00011   0.00065   0.00034   0.00099   2.12693
    A6        2.03130  -0.00022  -0.00130  -0.00068  -0.00198   2.02932
    D1        0.00000   0.00000   0.00000   0.00000   0.00000   0.00000
    D2        3.14159   0.00000   0.00000   0.00000   0.00000   3.14159
    D3        3.14159   0.00000   0.00000   0.00000   0.00000   3.14159
    D4        0.00000   0.00000   0.00000   0.00000   0.00000   0.00000
         Item               Value     Threshold  Converged?
 Maximum Force            0.000218     0.000450     YES
 RMS     Force            0.000133     0.000300     YES
 Maximum Displacement     0.001801     0.001800     NO 
 RMS     Displacement     0.000988     0.001200     YES
 Predicted change in Energy=-8.461759D-07
 GradGradGradGradGradGradGradGradGradGradGradGradGradGradGradGradGradGrad

                          Input orientation:                          
 ---------------------------------------------------------------------
 Center     Atomic      Atomic             Coordinates (Angstroms)
 Number     Number       Type             X           Y           Z
 ---------------------------------------------------------------------
      1          6           0        0.665479    0.000000    0.000000
      2          6           0       -0.665479    0.000000    0.000000
      3          1           0        1.239574    0.923604    0.000000
      4          1           0        1.239574   -0.923604    0.000000
      5          1           0       -1.239574    0.923604    0.000000
      6          1           0       -1.239574   -0.923604    0.000000
 ---------------------------------------------------------------------
                    Distance matrix (angstroms):
                    1          2          3          4          5
     1  C    0.000000
     2  C    1.330957   0.000000
     3  H    1.087488   2.117138   0.000000
     4  H    1.087488   2.117138   1.847209   0.000000
     5  H    2.117138   1.087488   2.479149   3.091660   0.000000
     6  H    2.117138   1.087488   3.091660   2.479149   1.847209
                    6
     6  H    0.000000
 Stoichiometry    C2H4
 Framework group  D2H[C2"(C.C),SG(H4)]
 Deg. of freedom     3
 Full point group                 D2H     NOp   8
 Largest Abelian subgroup         D2H     NOp   8
 Largest concise Abelian subgroup D2      NOp   4
                         Standard orientation:                         
 ---------------------------------------------------------------------
 Center     Atomic      Atomic             Coordinates (Angstroms)
 Number     Number       Type             X           Y           Z
 ---------------------------------------------------------------------
      1          6           0        0.000000    0.000000    0.665479
      2          6           0        0.000000    0.000000   -0.665479
      3          1           0        0.000000    0.923604    1.239574
      4          1           0        0.000000   -0.923604    1.239574
      5          1           0        0.000000    0.923604   -1.239574
      6          1           0        0.000000   -0.923604   -1.239574
 ---------------------------------------------------------------------
 Rotational constants (GHZ):    146.9603446     30.0410383     24.9424116
 Standard basis: 6-31G(d) (6D, 7F)
 There are    10 symmetry adapted basis functions of AG  symmetry.
 There are     1 symmetry adapted basis functions of B1G symmetry.
 There are     3 symmetry adapted basis functions of B2G symmetry.
 There are     5 symmetry adapted basis functions of B3G symmetry.
 There are     1 symmetry adapted basis functions of AU  symmetry.
 There are    10 symmetry adapted basis functions of B1U symmetry.
 There are     5 symmetry adapted basis functions of B2U symmetry.
 There are     3 symmetry adapted basis functions of B3U symmetry.
 Integral buffers will be    131072 words long.
 Raffenetti 2 integral format.
 Two-electron integral symmetry is turned on.
    38 basis functions,    72 primitive gaussians,    38 cartesian basis functions
     8 alpha electrons        8 beta electrons
       nuclear repulsion energy        33.3327723065 Hartrees.
 NAtoms=    6 NActive=    6 NUniq=    2 SFac= 4.00D+00 NAtFMM=   60 NAOKFM=F Big=F
 One-electron integrals computed using PRISM.
 NBasis=    38 RedAO= T  NBF=    10     1     3     5     1    10     5     3
 NBsUse=    38 1.00D-06 NBFU=    10     1     3     5     1    10     5     3
 Initial guess read from the read-write file.
 B after Tr=     0.000000    0.000000    0.000000
         Rot=    1.000000    0.000000    0.000000    0.000000 Ang=   0.00 deg.
 Initial guess orbital symmetries:
       Occupied  (AG) (B1U) (AG) (B1U) (B2U) (AG) (B3G) (B3U)
       Virtual   (B2G) (AG) (B2U) (B1U) (B3G) (B1U) (AG) (B3U)
                 (B2U) (B2G) (AG) (B1U) (B2U) (B3G) (B1U) (AG)
                 (B1U) (B3G) (B3U) (B1G) (AU) (AG) (B2U) (AG) (B1U)
                 (B2G) (B3G) (B1U) (AG) (B1U)
 Requested convergence on RMS density matrix=1.00D-08 within 128 cycles.
 Requested convergence on MAX density matrix=1.00D-06.
 Requested convergence on             energy=1.00D-06.
 No special actions if energy rises.
 Keep R1 ints in memory in canonical form, NReq=1292479.
 SCF Done:  E(RB3LYP) =  -78.5874586868     A.U. after    5 cycles
             Convg  =    0.3872D-08             -V/T =  2.0105
 Calling FoFJK, ICntrl=      2127 FMM=F ISym2X=1 I1Cent= 0 IOpClX= 0 NMat=1 NMatS=1 NMatT=0.
 ***** Axes restored to original set *****
 -------------------------------------------------------------------
 Center     Atomic                   Forces (Hartrees/Bohr)
 Number     Number              X              Y              Z
 -------------------------------------------------------------------
      1        6          -0.000003355    0.000000000    0.000000000
      2        6           0.000003355    0.000000000    0.000000000
      3        1          -0.000001891   -0.000006577    0.000000000
      4        1          -0.000001891    0.000006577    0.000000000
      5        1           0.000001891   -0.000006577    0.000000000
      6        1           0.000001891    0.000006577    0.000000000
 -------------------------------------------------------------------
 Cartesian Forces:  Max     0.000006577 RMS     0.000003414

 GradGradGradGradGradGradGradGradGradGradGradGradGradGradGradGradGradGrad
 Berny optimization.
 Using GEDIIS/GDIIS optimizer.
 Internal  Forces:  Max     0.000007138 RMS     0.000004033
 Search for a local minimum.
 Step number   4 out of a maximum of   25
 All quantities printed in internal units (Hartrees-Bohrs-Radians)
 Mixed Optimization -- En-DIIS/RFO-DIIS
 Swaping is turned off.
 Update second derivatives using D2CorX and points    1    2    3    4
 DE= -8.48D-07 DEPred=-8.46D-07 R= 1.00D+00
 Trust test= 1.00D+00 RLast= 3.62D-03 DXMaxT set to 3.00D-01
 The second derivative matrix:
                          R1        R2        R3        R4        R5
           R1           0.63124
           R2           0.00761   0.34609
           R3           0.00761   0.00347   0.34609
           R4           0.00761   0.00347   0.00347   0.34609
           R5           0.00761   0.00347   0.00347   0.00347   0.34609
           A1           0.01004  -0.00120  -0.00120  -0.00120  -0.00120
           A2           0.01004  -0.00120  -0.00120  -0.00120  -0.00120
           A3          -0.02008   0.00240   0.00240   0.00240   0.00240
           A4           0.01004  -0.00120  -0.00120  -0.00120  -0.00120
           A5           0.01004  -0.00120  -0.00120  -0.00120  -0.00120
           A6          -0.02008   0.00240   0.00240   0.00240   0.00240
           D1           0.00000   0.00000   0.00000   0.00000   0.00000
           D2           0.00000   0.00000   0.00000   0.00000   0.00000
           D3           0.00000   0.00000   0.00000   0.00000   0.00000
           D4           0.00000   0.00000   0.00000   0.00000   0.00000
                          A1        A2        A3        A4        A5
           A1           0.15627
           A2          -0.00373   0.15627
           A3           0.00747   0.00747   0.14506
           A4          -0.00373  -0.00373   0.00747   0.15627
           A5          -0.00373  -0.00373   0.00747  -0.00373   0.15627
           A6           0.00747   0.00747  -0.01494   0.00747   0.00747
           D1           0.00000   0.00000   0.00000   0.00000   0.00000
           D2           0.00000   0.00000   0.00000   0.00000   0.00000
           D3           0.00000   0.00000   0.00000   0.00000   0.00000
           D4           0.00000   0.00000   0.00000   0.00000   0.00000
                          A6        D1        D2        D3        D4
           A6           0.14506
           D1           0.00000   0.02810
           D2           0.00000   0.00000   0.02810
           D3           0.00000   0.00000   0.00000   0.02810
           D4           0.00000   0.00000   0.00000   0.00000   0.02810
 ITU=  0  1  1  0
     Eigenvalues ---    0.02810   0.02810   0.02810   0.11250   0.16000
     Eigenvalues ---    0.16000   0.16000   0.34262   0.34262   0.34262
     Eigenvalues ---    0.35610   0.63434
 En-DIIS/RFO-DIIS IScMMF=        0 using points:     4    3    2
 RFO step:  Lambda= 0.00000000D+00.
 DidBck=F Rises=F RFO-DIIS coefs:    1.00601   -0.00747    0.00146
 Iteration  1 RMS(Cart)=  0.00001458 RMS(Int)=  0.00000000
 Iteration  2 RMS(Cart)=  0.00000000 RMS(Int)=  0.00000000
 ClnCor:  largest displacement from symmetrization is 5.38D-14 for atom     6.
 Variable       Old X    -DE/DX   Delta X   Delta X   Delta X     New X
                                  (DIIS)     (GDIIS)  (Total)
    R1        2.51514  -0.00001  -0.00001  -0.00001  -0.00001   2.51513
    R2        2.05506  -0.00001   0.00000  -0.00002  -0.00002   2.05504
    R3        2.05506  -0.00001   0.00000  -0.00002  -0.00002   2.05504
    R4        2.05506  -0.00001   0.00000  -0.00002  -0.00002   2.05504
    R5        2.05506  -0.00001   0.00000  -0.00002  -0.00002   2.05504
    A1        2.12693   0.00000   0.00000   0.00001   0.00001   2.12695
    A2        2.12693   0.00000   0.00000   0.00001   0.00001   2.12695
    A3        2.02932   0.00000   0.00000  -0.00002  -0.00002   2.02929
    A4        2.12693   0.00000   0.00000   0.00001   0.00001   2.12695
    A5        2.12693   0.00000   0.00000   0.00001   0.00001   2.12695
    A6        2.02932   0.00000   0.00000  -0.00002  -0.00002   2.02929
    D1        0.00000   0.00000   0.00000   0.00000   0.00000   0.00000
    D2        3.14159   0.00000   0.00000   0.00000   0.00000   3.14159
    D3        3.14159   0.00000   0.00000   0.00000   0.00000   3.14159
    D4        0.00000   0.00000   0.00000   0.00000   0.00000   0.00000
         Item               Value     Threshold  Converged?
 Maximum Force            0.000007     0.000450     YES
 RMS     Force            0.000004     0.000300     YES
 Maximum Displacement     0.000028     0.001800     YES
 RMS     Displacement     0.000015     0.001200     YES
 Predicted change in Energy=-3.665407D-10
 Optimization completed.
    -- Stationary point found.
                           ----------------------------
                           !   Optimized Parameters   !
                           ! (Angstroms and Degrees)  !
 --------------------------                            --------------------------
 ! Name  Definition              Value          Derivative Info.                !
 --------------------------------------------------------------------------------
 ! R1    R(1,2)                  1.331          -DE/DX =    0.0                 !
 ! R2    R(1,3)                  1.0875         -DE/DX =    0.0                 !
 ! R3    R(1,4)                  1.0875         -DE/DX =    0.0                 !
 ! R4    R(2,5)                  1.0875         -DE/DX =    0.0                 !
 ! R5    R(2,6)                  1.0875         -DE/DX =    0.0                 !
 ! A1    A(2,1,3)              121.8643         -DE/DX =    0.0                 !
 ! A2    A(2,1,4)              121.8643         -DE/DX =    0.0                 !
 ! A3    A(3,1,4)              116.2713         -DE/DX =    0.0                 !
 ! A4    A(1,2,5)              121.8643         -DE/DX =    0.0                 !
 ! A5    A(1,2,6)              121.8643         -DE/DX =    0.0                 !
 ! A6    A(5,2,6)              116.2713         -DE/DX =    0.0                 !
 ! D1    D(3,1,2,5)              0.0            -DE/DX =    0.0                 !
 ! D2    D(3,1,2,6)            180.0            -DE/DX =    0.0                 !
 ! D3    D(4,1,2,5)            180.0            -DE/DX =    0.0                 !
 ! D4    D(4,1,2,6)              0.0            -DE/DX =    0.0                 !
 --------------------------------------------------------------------------------
 GradGradGradGradGradGradGradGradGradGradGradGradGradGradGradGradGradGrad

                          Input orientation:                          
 ---------------------------------------------------------------------
 Center     Atomic      Atomic             Coordinates (Angstroms)
 Number     Number       Type             X           Y           Z
 ---------------------------------------------------------------------
      1          6           0        0.665479    0.000000    0.000000
      2          6           0       -0.665479    0.000000    0.000000
      3          1           0        1.239574    0.923604    0.000000
      4          1           0        1.239574   -0.923604    0.000000
      5          1           0       -1.239574    0.923604    0.000000
      6          1           0       -1.239574   -0.923604    0.000000
 ---------------------------------------------------------------------
                    Distance matrix (angstroms):
                    1          2          3          4          5
     1  C    0.000000
     2  C    1.330957   0.000000
     3  H    1.087488   2.117138   0.000000
     4  H    1.087488   2.117138   1.847209   0.000000
     5  H    2.117138   1.087488   2.479149   3.091660   0.000000
     6  H    2.117138   1.087488   3.091660   2.479149   1.847209
                    6
     6  H    0.000000
 Stoichiometry    C2H4
 Framework group  D2H[C2"(C.C),SG(H4)]
 Deg. of freedom     3
 Full point group                 D2H     NOp   8
 Largest Abelian subgroup         D2H     NOp   8
 Largest concise Abelian subgroup D2      NOp   4
                         Standard orientation:                         
 ---------------------------------------------------------------------
 Center     Atomic      Atomic             Coordinates (Angstroms)
 Number     Number       Type             X           Y           Z
 ---------------------------------------------------------------------
      1          6           0        0.000000    0.000000    0.665479
      2          6           0        0.000000    0.000000   -0.665479
      3          1           0        0.000000    0.923604    1.239574
      4          1           0        0.000000   -0.923604    1.239574
      5          1           0        0.000000    0.923604   -1.239574
      6          1           0        0.000000   -0.923604   -1.239574
 ---------------------------------------------------------------------
 Rotational constants (GHZ):    146.9603446     30.0410383     24.9424116

 **********************************************************************

            Population analysis using the SCF density.

 **********************************************************************

 Orbital symmetries:
       Occupied  (AG) (B1U) (AG) (B1U) (B2U) (AG) (B3G) (B3U)
       Virtual   (B2G) (AG) (B2U) (B1U) (B3G) (B1U) (AG) (B3U)
                 (B2U) (B2G) (AG) (B1U) (B2U) (B3G) (B1U) (AG)
                 (B1U) (B3G) (B3U) (B1G) (AU) (AG) (B2U) (AG) (B1U)
                 (B2G) (B3G) (B1U) (AG) (B1U)
 The electronic state is 1-AG.
 Alpha  occ. eigenvalues --  -10.18428 -10.18338  -0.75474  -0.57733  -0.46467
 Alpha  occ. eigenvalues --   -0.41640  -0.35321  -0.26663
 Alpha virt. eigenvalues --    0.01878   0.12236   0.14025   0.15756   0.24405
 Alpha virt. eigenvalues --    0.33236   0.48035   0.54846   0.56856   0.63727
 Alpha virt. eigenvalues --    0.65523   0.69902   0.84749   0.87218   0.93170
 Alpha virt. eigenvalues --    0.94109   1.10573   1.21578   1.46273   1.54519
 Alpha virt. eigenvalues --    1.83288   1.89028   1.98788   2.08823   2.28541
 Alpha virt. eigenvalues --    2.38622   2.70142   2.70530   4.09687   4.24634
          Condensed to atoms (all electrons):
              1          2          3          4          5          6
     1  C    4.914272   0.687079   0.377542   0.377542  -0.035490  -0.035490
     2  C    0.687079   4.914272  -0.035490  -0.035490   0.377542   0.377542
     3  H    0.377542  -0.035490   0.562350  -0.043545  -0.008728   0.005143
     4  H    0.377542  -0.035490  -0.043545   0.562350   0.005143  -0.008728
     5  H   -0.035490   0.377542  -0.008728   0.005143   0.562350  -0.043545
     6  H   -0.035490   0.377542   0.005143  -0.008728  -0.043545   0.562350
 Mulliken atomic charges:
              1
     1  C   -0.285455
     2  C   -0.285455
     3  H    0.142727
     4  H    0.142727
     5  H    0.142727
     6  H    0.142727
 Sum of Mulliken atomic charges =   0.00000
 Mulliken charges with hydrogens summed into heavy atoms:
              1
     1  C    0.000000
     2  C    0.000000
 Sum of Mulliken charges with hydrogens summed into heavy atoms =   0.00000
 Electronic spatial extent (au):  <R**2>=             82.2161
 Charge=              0.0000 electrons
 Dipole moment (field-independent basis, Debye):
    X=              0.0000    Y=              0.0000    Z=              0.0000  Tot=              0.0000
 Quadrupole moment (field-independent basis, Debye-Ang):
   XX=            -15.0314   YY=            -12.1181   ZZ=            -11.9973
   XY=              0.0000   XZ=              0.0000   YZ=              0.0000
 Traceless Quadrupole moment (field-independent basis, Debye-Ang):
   XX=             -1.9825   YY=              0.9309   ZZ=              1.0516
   XY=              0.0000   XZ=              0.0000   YZ=              0.0000
 Octapole moment (field-independent basis, Debye-Ang**2):
  XXX=              0.0000  YYY=              0.0000  ZZZ=              0.0000  XYY=              0.0000
  XXY=              0.0000  XXZ=              0.0000  XZZ=              0.0000  YZZ=              0.0000
  YYZ=              0.0000  XYZ=              0.0000
 Hexadecapole moment (field-independent basis, Debye-Ang**3):
 XXXX=            -15.5786 YYYY=            -26.1759 ZZZZ=            -66.7297 XXXY=              0.0000
 XXXZ=              0.0000 YYYX=              0.0000 YYYZ=              0.0000 ZZZX=              0.0000
 ZZZY=              0.0000 XXYY=             -7.5225 XXZZ=            -14.5838 YYZZ=            -13.2613
 XXYZ=              0.0000 YYXZ=              0.0000 ZZXY=              0.0000
 N-N= 3.333277230653D+01 E-N=-2.480509444816D+02  KE= 7.776997543093D+01
 Symmetry AG   KE= 3.738146985987D+01
 Symmetry B1G  KE= 3.003290059455D-34
 Symmetry B2G  KE= 2.590640085525D-32
 Symmetry B3G  KE= 2.094449269898D+00
 Symmetry AU   KE= 3.393367783308D-34
 Symmetry B1U  KE= 3.432915640012D+01
 Symmetry B2U  KE= 1.878371505766D+00
 Symmetry B3U  KE= 2.086528395280D+00
 1\1\GINC-BUFALO\FOpt\RB3LYP\6-31G(d)\C2H4\BETO\09-Apr-2021\0\\# opt B3
 LYP/6-31G* freq=noraman int=ultrafine\\ethylene neutral\\0,1\C,0.66547
 85434,0.,0.\C,-0.6654785434,0.,0.\H,1.2395744552,0.9236043079,0.\H,1.2
 395744552,-0.9236043079,0.\H,-1.2395744552,0.9236043079,0.\H,-1.239574
 4552,-0.9236043079,0.\\Version=EM64L-G09RevC.01\State=1-AG\HF=-78.5874
 587\RMSD=3.872e-09\RMSF=3.414e-06\Dipole=0.,0.,0.\Quadrupole=0.781836,
 0.6920804,-1.4739164,0.,0.,0.\PG=D02H [C2"(C1.C1),SG(H4)]\\@


 A BIRD IN THE HAND IS SAFER THAN ONE OVERHEAD.

                       -- NEWTON'S SEVENTH LAW
 Job cpu time:  0 days  0 hours  0 minutes  6.7 seconds.
 File lengths (MBytes):  RWF=      5 Int=      0 D2E=      0 Chk=      1 Scr=      1
 Normal termination of Gaussian 09 at Fri Apr  9 18:58:10 2021.
 Link1:  Proceeding to internal job step number  2.
 --------------------------------------------------------------------
 #N Geom=AllCheck Guess=TCheck SCRF=Check GenChk RB3LYP/6-31G(d) Freq
 --------------------------------------------------------------------
 1/10=4,29=7,30=1,38=1,40=1/1,3;
 2/12=2,40=1/2;
 3/5=1,6=6,7=1,11=2,14=-4,16=1,25=1,30=1,70=2,71=2,74=-5,75=-5,116=1/1,2,3;
 4/5=101/1;
 5/5=2,98=1/2;
 8/6=4,10=90,11=11/1;
 11/6=1,8=1,9=11,15=111,16=1/1,2,10;
 10/6=1/2;
 6/7=2,8=2,9=2,10=2,18=1,28=1/1;
 7/8=1,10=1,25=1/1,2,3,16;
 1/10=4,30=1/3;
 99//99;
 Structure from the checkpoint file:  ethylene-neutral.chk
 ----------------
 ethylene neutral
 ----------------
 Charge =  0 Multiplicity = 1
 Redundant internal coordinates found in file.
 C,0,0.6654785434,0.,0.
 C,0,-0.6654785434,0.,0.
 H,0,1.2395744552,0.9236043079,0.
 H,0,1.2395744552,-0.9236043079,0.
 H,0,-1.2395744552,0.9236043079,0.
 H,0,-1.2395744552,-0.9236043079,0.
 Recover connectivity data from disk.

 GradGradGradGradGradGradGradGradGradGradGradGradGradGradGradGradGradGrad
 Berny optimization.
 Initialization pass.
                           ----------------------------
                           !    Initial Parameters    !
                           ! (Angstroms and Degrees)  !
 --------------------------                            --------------------------
 ! Name  Definition              Value          Derivative Info.                !
 --------------------------------------------------------------------------------
 ! R1    R(1,2)                  1.331          calculate D2E/DX2 analytically  !
 ! R2    R(1,3)                  1.0875         calculate D2E/DX2 analytically  !
 ! R3    R(1,4)                  1.0875         calculate D2E/DX2 analytically  !
 ! R4    R(2,5)                  1.0875         calculate D2E/DX2 analytically  !
 ! R5    R(2,6)                  1.0875         calculate D2E/DX2 analytically  !
 ! A1    A(2,1,3)              121.8643         calculate D2E/DX2 analytically  !
 ! A2    A(2,1,4)              121.8643         calculate D2E/DX2 analytically  !
 ! A3    A(3,1,4)              116.2713         calculate D2E/DX2 analytically  !
 ! A4    A(1,2,5)              121.8643         calculate D2E/DX2 analytically  !
 ! A5    A(1,2,6)              121.8643         calculate D2E/DX2 analytically  !
 ! A6    A(5,2,6)              116.2713         calculate D2E/DX2 analytically  !
 ! D1    D(3,1,2,5)              0.0            calculate D2E/DX2 analytically  !
 ! D2    D(3,1,2,6)            180.0            calculate D2E/DX2 analytically  !
 ! D3    D(4,1,2,5)            180.0            calculate D2E/DX2 analytically  !
 ! D4    D(4,1,2,6)              0.0            calculate D2E/DX2 analytically  !
 --------------------------------------------------------------------------------
 Trust Radius=3.00D-01 FncErr=1.00D-07 GrdErr=1.00D-07
 Number of steps in this run=      2 maximum allowed number of steps=      2.
 GradGradGradGradGradGradGradGradGradGradGradGradGradGradGradGradGradGrad

                          Input orientation:                          
 ---------------------------------------------------------------------
 Center     Atomic      Atomic             Coordinates (Angstroms)
 Number     Number       Type             X           Y           Z
 ---------------------------------------------------------------------
      1          6           0        0.665479    0.000000    0.000000
      2          6           0       -0.665479    0.000000    0.000000
      3          1           0        1.239574    0.923604    0.000000
      4          1           0        1.239574   -0.923604    0.000000
      5          1           0       -1.239574    0.923604    0.000000
      6          1           0       -1.239574   -0.923604    0.000000
 ---------------------------------------------------------------------
                    Distance matrix (angstroms):
                    1          2          3          4          5
     1  C    0.000000
     2  C    1.330957   0.000000
     3  H    1.087488   2.117138   0.000000
     4  H    1.087488   2.117138   1.847209   0.000000
     5  H    2.117138   1.087488   2.479149   3.091660   0.000000
     6  H    2.117138   1.087488   3.091660   2.479149   1.847209
                    6
     6  H    0.000000
 Stoichiometry    C2H4
 Framework group  D2H[C2"(C.C),SG(H4)]
 Deg. of freedom     3
 Full point group                 D2H     NOp   8
 Largest Abelian subgroup         D2H     NOp   8
 Largest concise Abelian subgroup D2      NOp   4
                         Standard orientation:                         
 ---------------------------------------------------------------------
 Center     Atomic      Atomic             Coordinates (Angstroms)
 Number     Number       Type             X           Y           Z
 ---------------------------------------------------------------------
      1          6           0        0.000000    0.000000    0.665479
      2          6           0        0.000000    0.000000   -0.665479
      3          1           0        0.000000    0.923604    1.239574
      4          1           0        0.000000   -0.923604    1.239574
      5          1           0        0.000000    0.923604   -1.239574
      6          1           0        0.000000   -0.923604   -1.239574
 ---------------------------------------------------------------------
 Rotational constants (GHZ):    146.9603446     30.0410383     24.9424116
 Standard basis: 6-31G(d) (6D, 7F)
 There are    10 symmetry adapted basis functions of AG  symmetry.
 There are     1 symmetry adapted basis functions of B1G symmetry.
 There are     3 symmetry adapted basis functions of B2G symmetry.
 There are     5 symmetry adapted basis functions of B3G symmetry.
 There are     1 symmetry adapted basis functions of AU  symmetry.
 There are    10 symmetry adapted basis functions of B1U symmetry.
 There are     5 symmetry adapted basis functions of B2U symmetry.
 There are     3 symmetry adapted basis functions of B3U symmetry.
 Integral buffers will be    131072 words long.
 Raffenetti 2 integral format.
 Two-electron integral symmetry is turned on.
    38 basis functions,    72 primitive gaussians,    38 cartesian basis functions
     8 alpha electrons        8 beta electrons
       nuclear repulsion energy        33.3327723065 Hartrees.
 NAtoms=    6 NActive=    6 NUniq=    2 SFac= 4.00D+00 NAtFMM=   60 NAOKFM=F Big=F
 One-electron integrals computed using PRISM.
 NBasis=    38 RedAO= T  NBF=    10     1     3     5     1    10     5     3
 NBsUse=    38 1.00D-06 NBFU=    10     1     3     5     1    10     5     3
 Initial guess read from the checkpoint file:  ethylene-neutral.chk
 B after Tr=     0.000000    0.000000    0.000000
         Rot=    1.000000    0.000000    0.000000    0.000000 Ang=   0.00 deg.
 Initial guess orbital symmetries:
       Occupied  (AG) (B1U) (AG) (B1U) (B2U) (AG) (B3G) (B3U)
       Virtual   (B2G) (AG) (B2U) (B1U) (B3G) (B1U) (AG) (B3U)
                 (B2U) (B2G) (AG) (B1U) (B2U) (B3G) (B1U) (AG)
                 (B1U) (B3G) (B3U) (B1G) (AU) (AG) (B2U) (AG) (B1U)
                 (B2G) (B3G) (B1U) (AG) (B1U)
 Requested convergence on RMS density matrix=1.00D-08 within 128 cycles.
 Requested convergence on MAX density matrix=1.00D-06.
 Requested convergence on             energy=1.00D-06.
 No special actions if energy rises.
 Keep R1 ints in memory in canonical form, NReq=1292479.
 SCF Done:  E(RB3LYP) =  -78.5874586868     A.U. after    1 cycles
             Convg  =    0.8950D-09             -V/T =  2.0105
 Range of M.O.s used for correlation:     1    38
 NBasis=    38 NAE=     8 NBE=     8 NFC=     0 NFV=     0
 NROrb=     38 NOA=     8 NOB=     8 NVA=    30 NVB=    30
 Symmetrizing basis deriv contribution to polar:
 IMax=3 JMax=2 DiffMx= 0.00D+00
 G2DrvN: will do     7 centers at a time, making    1 passes doing MaxLOS=2.
 Calling FoFCou, ICntrl=  3107 FMM=F I1Cent=   0 AccDes= 0.00D+00.
 FoFDir/FoFCou used for L=0 through L=2.
 End of G2Drv Frequency-dependent properties file   721 does not exist.
 End of G2Drv Frequency-dependent properties file   722 does not exist.
          IDoAtm=111111
          Differentiating once with respect to electric field.
                with respect to dipole field.
          Differentiating once with respect to nuclear coordinates.
          Keep R1 ints in memory in canonical form, NReq=1097687.
          There are     9 degrees of freedom in the 1st order CPHF.  IDoFFX=4.
      9 vectors produced by pass  0 Test12= 2.67D-15 1.11D-08 XBig12= 3.13D+01 4.79D+00.
 AX will form     9 AO Fock derivatives at one time.
      9 vectors produced by pass  1 Test12= 2.67D-15 1.11D-08 XBig12= 7.00D+00 1.08D+00.
      9 vectors produced by pass  2 Test12= 2.67D-15 1.11D-08 XBig12= 1.41D-01 1.34D-01.
      9 vectors produced by pass  3 Test12= 2.67D-15 1.11D-08 XBig12= 8.58D-04 1.66D-02.
      9 vectors produced by pass  4 Test12= 2.67D-15 1.11D-08 XBig12= 3.89D-06 7.91D-04.
      7 vectors produced by pass  5 Test12= 2.67D-15 1.11D-08 XBig12= 2.67D-09 1.64D-05.
      2 vectors produced by pass  6 Test12= 2.67D-15 1.11D-08 XBig12= 2.79D-12 5.09D-07.
      1 vectors produced by pass  7 Test12= 2.67D-15 1.11D-08 XBig12= 2.26D-15 1.27D-08.
 Inverted reduced A of dimension    55 with in-core refinement.
 Isotropic polarizability for W=    0.000000       19.90 Bohr**3.
 End of Minotr Frequency-dependent properties file   721 does not exist.
 End of Minotr Frequency-dependent properties file   722 does not exist.

 **********************************************************************

            Population analysis using the SCF density.

 **********************************************************************

 Orbital symmetries:
       Occupied  (AG) (B1U) (AG) (B1U) (B2U) (AG) (B3G) (B3U)
       Virtual   (B2G) (AG) (B2U) (B1U) (B3G) (B1U) (AG) (B3U)
                 (B2U) (B2G) (AG) (B1U) (B2U) (B3G) (B1U) (AG)
                 (B1U) (B3G) (B3U) (B1G) (AU) (AG) (B2U) (AG) (B1U)
                 (B2G) (B3G) (B1U) (AG) (B1U)
 The electronic state is 1-AG.
 Alpha  occ. eigenvalues --  -10.18428 -10.18338  -0.75474  -0.57733  -0.46467
 Alpha  occ. eigenvalues --   -0.41640  -0.35321  -0.26663
 Alpha virt. eigenvalues --    0.01878   0.12236   0.14025   0.15756   0.24405
 Alpha virt. eigenvalues --    0.33236   0.48035   0.54846   0.56856   0.63727
 Alpha virt. eigenvalues --    0.65523   0.69902   0.84749   0.87218   0.93170
 Alpha virt. eigenvalues --    0.94109   1.10573   1.21578   1.46273   1.54519
 Alpha virt. eigenvalues --    1.83288   1.89028   1.98788   2.08823   2.28541
 Alpha virt. eigenvalues --    2.38622   2.70142   2.70530   4.09687   4.24634
          Condensed to atoms (all electrons):
              1          2          3          4          5          6
     1  C    4.914272   0.687079   0.377542   0.377542  -0.035490  -0.035490
     2  C    0.687079   4.914272  -0.035490  -0.035490   0.377542   0.377542
     3  H    0.377542  -0.035490   0.562350  -0.043545  -0.008728   0.005143
     4  H    0.377542  -0.035490  -0.043545   0.562350   0.005143  -0.008728
     5  H   -0.035490   0.377542  -0.008728   0.005143   0.562350  -0.043545
     6  H   -0.035490   0.377542   0.005143  -0.008728  -0.043545   0.562350
 Mulliken atomic charges:
              1
     1  C   -0.285455
     2  C   -0.285455
     3  H    0.142727
     4  H    0.142727
     5  H    0.142727
     6  H    0.142727
 Sum of Mulliken atomic charges =   0.00000
 Mulliken charges with hydrogens summed into heavy atoms:
              1
     1  C    0.000000
     2  C    0.000000
 Sum of Mulliken charges with hydrogens summed into heavy atoms =   0.00000
 APT atomic charges:
              1
     1  C   -0.041077
     2  C   -0.041077
     3  H    0.020538
     4  H    0.020538
     5  H    0.020538
     6  H    0.020538
 Sum of APT charges=   0.00000
 APT Atomic charges with hydrogens summed into heavy atoms:
              1
     1  C    0.000000
     2  C    0.000000
     3  H    0.000000
     4  H    0.000000
     5  H    0.000000
     6  H    0.000000
 Sum of APT charges=   0.00000
 Electronic spatial extent (au):  <R**2>=             82.2161
 Charge=              0.0000 electrons
 Dipole moment (field-independent basis, Debye):
    X=              0.0000    Y=              0.0000    Z=              0.0000  Tot=              0.0000
 Quadrupole moment (field-independent basis, Debye-Ang):
   XX=            -15.0314   YY=            -12.1181   ZZ=            -11.9973
   XY=              0.0000   XZ=              0.0000   YZ=              0.0000
 Traceless Quadrupole moment (field-independent basis, Debye-Ang):
   XX=             -1.9825   YY=              0.9309   ZZ=              1.0516
   XY=              0.0000   XZ=              0.0000   YZ=              0.0000
 Octapole moment (field-independent basis, Debye-Ang**2):
  XXX=              0.0000  YYY=              0.0000  ZZZ=              0.0000  XYY=              0.0000
  XXY=              0.0000  XXZ=              0.0000  XZZ=              0.0000  YZZ=              0.0000
  YYZ=              0.0000  XYZ=              0.0000
 Hexadecapole moment (field-independent basis, Debye-Ang**3):
 XXXX=            -15.5786 YYYY=            -26.1759 ZZZZ=            -66.7297 XXXY=              0.0000
 XXXZ=              0.0000 YYYX=              0.0000 YYYZ=              0.0000 ZZZX=              0.0000
 ZZZY=              0.0000 XXYY=             -7.5225 XXZZ=            -14.5838 YYZZ=            -13.2613
 XXYZ=              0.0000 YYXZ=              0.0000 ZZXY=              0.0000
 N-N= 3.333277230653D+01 E-N=-2.480509448875D+02  KE= 7.776997561245D+01
 Symmetry AG   KE= 3.738146991133D+01
 Symmetry B1G  KE= 3.003290136308D-34
 Symmetry B2G  KE= 2.650960940204D-32
 Symmetry B3G  KE= 2.094449288140D+00
 Symmetry AU   KE= 3.393367772542D-34
 Symmetry B1U  KE= 3.432915644657D+01
 Symmetry B2U  KE= 1.878371523747D+00
 Symmetry B3U  KE= 2.086528442659D+00
  Exact polarizability:   8.511   0.000  20.408   0.000   0.000  30.781
 Approx polarizability:  11.018   0.000  25.282   0.000   0.000  46.719
 Calling FoFJK, ICntrl=    100127 FMM=F ISym2X=1 I1Cent= 0 IOpClX= 0 NMat=1 NMatS=1 NMatT=0.
 Full mass-weighted force constant matrix:
 Low frequencies ---   -0.0005    0.0001    0.0002    2.5174    7.2156   15.4872
 Low frequencies ---  834.8757  956.1687  976.1504
 Harmonic frequencies (cm**-1), IR intensities (KM/Mole), Raman scattering
 activities (A**4/AMU), depolarization ratios for plane and unpolarized
 incident light, reduced masses (AMU), force constants (mDyne/A),
 and normal coordinates:
                     1                      2                      3
                    B2U                    B2G                    B3U
 Frequencies --   834.8757               956.1687               976.1504
 Red. masses --     1.0427                 1.5207                 1.1607
 Frc consts  --     0.4282                 0.8192                 0.6517
 IR Inten    --     0.7351                 0.0000                82.9925
  Atom  AN      X      Y      Z        X      Y      Z        X      Y      Z
     1   6     0.00  -0.04   0.00     0.15   0.00   0.00     0.08   0.00   0.00
     2   6     0.00  -0.04   0.00    -0.15   0.00   0.00     0.08   0.00   0.00
     3   1     0.00   0.24  -0.44    -0.49   0.00   0.00    -0.50   0.00   0.00
     4   1     0.00   0.24   0.44    -0.49   0.00   0.00    -0.50   0.00   0.00
     5   1     0.00   0.24   0.44     0.49   0.00   0.00    -0.50   0.00   0.00
     6   1     0.00   0.24  -0.44     0.49   0.00   0.00    -0.50   0.00   0.00
                     4                      5                      6
                    AU                     B3G                    AG
 Frequencies --  1070.0786              1247.9839              1395.7953
 Red. masses --     1.0078                 1.5257                 1.2269
 Frc consts  --     0.6799                 1.4000                 1.4083
 IR Inten    --     0.0000                 0.0000                 0.0000
  Atom  AN      X      Y      Z        X      Y      Z        X      Y      Z
     1   6     0.00   0.00   0.00     0.00   0.15   0.00     0.00   0.00   0.10
     2   6     0.00   0.00   0.00     0.00  -0.15   0.00     0.00   0.00  -0.10
     3   1     0.50   0.00   0.00     0.00  -0.14   0.47     0.00  -0.20   0.45
     4   1    -0.50   0.00   0.00     0.00  -0.14  -0.47     0.00   0.20   0.45
     5   1    -0.50   0.00   0.00     0.00   0.14   0.47     0.00  -0.20  -0.45
     6   1     0.50   0.00   0.00     0.00   0.14  -0.47     0.00   0.20  -0.45
                     7                      8                      9
                    B1U                    AG                     B1U
 Frequencies --  1494.3146              1720.1842              3151.7635
 Red. masses --     1.1119                 3.1115                 1.0478
 Frc consts  --     1.4629                 5.4247                 6.1322
 IR Inten    --     5.2400                 0.0000                18.7289
  Atom  AN      X      Y      Z        X      Y      Z        X      Y      Z
     1   6     0.00   0.00   0.07     0.00   0.00   0.31     0.00   0.00   0.04
     2   6     0.00   0.00   0.07     0.00   0.00  -0.31     0.00   0.00   0.04
     3   1     0.00   0.28  -0.41     0.00   0.38  -0.24     0.00  -0.43  -0.25
     4   1     0.00  -0.28  -0.41     0.00  -0.38  -0.24     0.00   0.43  -0.25
     5   1     0.00  -0.28  -0.41     0.00   0.38   0.24     0.00   0.43  -0.25
     6   1     0.00   0.28  -0.41     0.00  -0.38   0.24     0.00  -0.43  -0.25
                    10                     11                     12
                    AG                     B3G                    B2U
 Frequencies --  3167.2129              3222.0833              3247.6373
 Red. masses --     1.0737                 1.1149                 1.1176
 Frc consts  --     6.3459                 6.8199                 6.9452
 IR Inten    --     0.0000                 0.0000                33.5502
  Atom  AN      X      Y      Z        X      Y      Z        X      Y      Z
     1   6     0.00   0.00  -0.05     0.00  -0.07   0.00     0.00   0.07   0.00
     2   6     0.00   0.00   0.05     0.00   0.07   0.00     0.00   0.07   0.00
     3   1     0.00   0.43   0.26     0.00   0.42   0.27     0.00  -0.42  -0.27
     4   1     0.00  -0.43   0.26     0.00   0.42  -0.27     0.00  -0.42   0.27
     5   1     0.00   0.43  -0.26     0.00  -0.42   0.27     0.00  -0.42   0.27
     6   1     0.00  -0.43  -0.26     0.00  -0.42  -0.27     0.00  -0.42  -0.27

 -------------------
 - Thermochemistry -
 -------------------
 Temperature   298.150 Kelvin.  Pressure   1.00000 Atm.
 Atom     1 has atomic number  6 and mass  12.00000
 Atom     2 has atomic number  6 and mass  12.00000
 Atom     3 has atomic number  1 and mass   1.00783
 Atom     4 has atomic number  1 and mass   1.00783
 Atom     5 has atomic number  1 and mass   1.00783
 Atom     6 has atomic number  1 and mass   1.00783
 Molecular mass:    28.03130 amu.
 Principal axes and moments of inertia in atomic units:
                           1         2         3
     Eigenvalues --    12.28046  60.07586  72.35632
           X            0.00000   0.00000   1.00000
           Y            0.00000   1.00000   0.00000
           Z            1.00000   0.00000   0.00000
 This molecule is an asymmetric top.
 Rotational symmetry number  4.
 Rotational temperatures (Kelvin)      7.05298     1.44174     1.19705
 Rotational constants (GHZ):         146.96034    30.04104    24.94241
 Zero-point vibrational energy     134485.7 (Joules/Mol)
                                   32.14285 (Kcal/Mol)
 Vibrational temperatures:   1201.20  1375.71  1404.46  1539.60  1795.57
          (Kelvin)           2008.24  2149.98  2474.96  4534.68  4556.91
                             4635.85  4672.62
 
 Zero-point correction=                           0.051223 (Hartree/Particle)
 Thermal correction to Energy=                    0.054265
 Thermal correction to Enthalpy=                  0.055209
 Thermal correction to Gibbs Free Energy=         0.030348
 Sum of electronic and zero-point Energies=            -78.536236
 Sum of electronic and thermal Energies=               -78.533194
 Sum of electronic and thermal Enthalpies=             -78.532250
 Sum of electronic and thermal Free Energies=          -78.557111
 
                     E (Thermal)             CV                S
                      KCal/Mol        Cal/Mol-Kelvin    Cal/Mol-Kelvin
 Total                   34.052              8.089             52.325
 Electronic               0.000              0.000              0.000
 Translational            0.889              2.981             35.927
 Rotational               0.889              2.981             15.864
 Vibrational             32.274              2.127              0.535
                       Q            Log10(Q)             Ln(Q)
 Total Bot       0.109926D-13        -13.958900        -32.141555
 Total V=0       0.399891D+10          9.601942         22.109288
 Vib (Bot)       0.288202D-23        -23.540302        -54.203549
 Vib (V=0)       0.104843D+01          0.020540          0.047295
 Electronic      0.100000D+01          0.000000          0.000000
 Translational   0.583338D+07          6.765920         15.579107
 Rotational      0.653856D+03          2.815482          6.482887
 ***** Axes restored to original set *****
 -------------------------------------------------------------------
 Center     Atomic                   Forces (Hartrees/Bohr)
 Number     Number              X              Y              Z
 -------------------------------------------------------------------
      1        6          -0.000003357    0.000000000    0.000000000
      2        6           0.000003357    0.000000000    0.000000000
      3        1          -0.000001889   -0.000006573    0.000000000
      4        1          -0.000001889    0.000006573    0.000000000
      5        1           0.000001889   -0.000006573    0.000000000
      6        1           0.000001889    0.000006573    0.000000000
 -------------------------------------------------------------------
 Cartesian Forces:  Max     0.000006573 RMS     0.000003413

 GradGradGradGradGradGradGradGradGradGradGradGradGradGradGradGradGradGrad
 Berny optimization.
 Internal  Forces:  Max     0.000007134 RMS     0.000004031
 Search for a local minimum.
 Step number   1 out of a maximum of    2
 All quantities printed in internal units (Hartrees-Bohrs-Radians)
 Second derivative matrix not updated -- analytic derivatives used.
 The second derivative matrix:
                          R1        R2        R3        R4        R5
           R1           0.65036
           R2           0.00712   0.36072
           R3           0.00712   0.00269   0.36072
           R4           0.00712   0.00075  -0.00042   0.36072
           R5           0.00712  -0.00042   0.00075   0.00269   0.36072
           A1           0.01077   0.00439  -0.01157  -0.00342   0.00440
           A2           0.01077  -0.01157   0.00439   0.00440  -0.00342
           A3          -0.02154   0.00718   0.00718  -0.00098  -0.00098
           A4           0.01077  -0.00342   0.00440   0.00439  -0.01157
           A5           0.01077   0.00440  -0.00342  -0.01157   0.00439
           A6          -0.02154  -0.00098  -0.00098   0.00718   0.00718
           D1           0.00000   0.00000   0.00000   0.00000   0.00000
           D2           0.00000   0.00000   0.00000   0.00000   0.00000
           D3           0.00000   0.00000   0.00000   0.00000   0.00000
           D4           0.00000   0.00000   0.00000   0.00000   0.00000
                          A1        A2        A3        A4        A5
           A1           0.08251
           A2          -0.04519   0.08251
           A3          -0.03732  -0.03732   0.07464
           A4          -0.00922   0.01066  -0.00143   0.08251
           A5           0.01066  -0.00922  -0.00143  -0.04519   0.08251
           A6          -0.00143  -0.00143   0.00287  -0.03732  -0.03732
           D1           0.00000   0.00000   0.00000   0.00000   0.00000
           D2           0.00000   0.00000   0.00000   0.00000   0.00000
           D3           0.00000   0.00000   0.00000   0.00000   0.00000
           D4           0.00000   0.00000   0.00000   0.00000   0.00000
                          A6        D1        D2        D3        D4
           A6           0.07464
           D1           0.00000   0.02509
           D2           0.00000   0.00831   0.03201
           D3           0.00000   0.00831  -0.01538   0.03201
           D4           0.00000  -0.00846   0.00831   0.00831   0.02509
 ITU=  0
     Eigenvalues ---    0.03326   0.03355   0.04739   0.10688   0.10756
     Eigenvalues ---    0.11312   0.14491   0.35946   0.35954   0.36367
     Eigenvalues ---    0.36386   0.65358
 Angle between quadratic step and forces=  31.01 degrees.
 Linear search not attempted -- first point.
 Iteration  1 RMS(Cart)=  0.00001422 RMS(Int)=  0.00000000
 Iteration  2 RMS(Cart)=  0.00000000 RMS(Int)=  0.00000000
 ClnCor:  largest displacement from symmetrization is 7.16D-14 for atom     6.
 Variable       Old X    -DE/DX   Delta X   Delta X   Delta X     New X
                                 (Linear)    (Quad)   (Total)
    R1        2.51514  -0.00001   0.00000  -0.00001  -0.00001   2.51513
    R2        2.05506  -0.00001   0.00000  -0.00002  -0.00002   2.05504
    R3        2.05506  -0.00001   0.00000  -0.00002  -0.00002   2.05504
    R4        2.05506  -0.00001   0.00000  -0.00002  -0.00002   2.05504
    R5        2.05506  -0.00001   0.00000  -0.00002  -0.00002   2.05504
    A1        2.12693   0.00000   0.00000   0.00001   0.00001   2.12695
    A2        2.12693   0.00000   0.00000   0.00001   0.00001   2.12695
    A3        2.02932   0.00000   0.00000  -0.00002  -0.00002   2.02929
    A4        2.12693   0.00000   0.00000   0.00001   0.00001   2.12695
    A5        2.12693   0.00000   0.00000   0.00001   0.00001   2.12695
    A6        2.02932   0.00000   0.00000  -0.00002  -0.00002   2.02929
    D1        0.00000   0.00000   0.00000   0.00000   0.00000   0.00000
    D2        3.14159   0.00000   0.00000   0.00000   0.00000   3.14159
    D3        3.14159   0.00000   0.00000   0.00000   0.00000   3.14159
    D4        0.00000   0.00000   0.00000   0.00000   0.00000   0.00000
         Item               Value     Threshold  Converged?
 Maximum Force            0.000007     0.000450     YES
 RMS     Force            0.000004     0.000300     YES
 Maximum Displacement     0.000027     0.001800     YES
 RMS     Displacement     0.000014     0.001200     YES
 Predicted change in Energy=-3.577499D-10
 Optimization completed.
    -- Stationary point found.
                           ----------------------------
                           !   Optimized Parameters   !
                           ! (Angstroms and Degrees)  !
 --------------------------                            --------------------------
 ! Name  Definition              Value          Derivative Info.                !
 --------------------------------------------------------------------------------
 ! R1    R(1,2)                  1.331          -DE/DX =    0.0                 !
 ! R2    R(1,3)                  1.0875         -DE/DX =    0.0                 !
 ! R3    R(1,4)                  1.0875         -DE/DX =    0.0                 !
 ! R4    R(2,5)                  1.0875         -DE/DX =    0.0                 !
 ! R5    R(2,6)                  1.0875         -DE/DX =    0.0                 !
 ! A1    A(2,1,3)              121.8643         -DE/DX =    0.0                 !
 ! A2    A(2,1,4)              121.8643         -DE/DX =    0.0                 !
 ! A3    A(3,1,4)              116.2713         -DE/DX =    0.0                 !
 ! A4    A(1,2,5)              121.8643         -DE/DX =    0.0                 !
 ! A5    A(1,2,6)              121.8643         -DE/DX =    0.0                 !
 ! A6    A(5,2,6)              116.2713         -DE/DX =    0.0                 !
 ! D1    D(3,1,2,5)              0.0            -DE/DX =    0.0                 !
 ! D2    D(3,1,2,6)            180.0            -DE/DX =    0.0                 !
 ! D3    D(4,1,2,5)            180.0            -DE/DX =    0.0                 !
 ! D4    D(4,1,2,6)              0.0            -DE/DX =    0.0                 !
 --------------------------------------------------------------------------------
 GradGradGradGradGradGradGradGradGradGradGradGradGradGradGradGradGradGrad

 1\1\GINC-BUFALO\Freq\RB3LYP\6-31G(d)\C2H4\BETO\09-Apr-2021\0\\#N Geom=
 AllCheck Guess=TCheck SCRF=Check GenChk RB3LYP/6-31G(d) Freq\\ethylene
  neutral\\0,1\C,0.6654785434,0.,0.\C,-0.6654785434,0.,0.\H,1.239574455
 2,0.9236043079,0.\H,1.2395744552,-0.9236043079,0.\H,-1.2395744552,0.92
 36043079,0.\H,-1.2395744552,-0.9236043079,0.\\Version=EM64L-G09RevC.01
 \State=1-AG\HF=-78.5874587\RMSD=8.950e-10\RMSF=3.413e-06\ZeroPoint=0.0
 512229\Thermal=0.0542648\Dipole=0.,0.,0.\DipoleDeriv=0.0118407,0.,0.,0
 .,0.1359608,0.,0.,0.,-0.2710319,0.0118407,0.,0.,0.,0.1359608,0.,0.,0.,
 -0.2710319,-0.0059204,-0.0588505,0.,-0.0784461,-0.0679804,0.,0.,0.,0.1
 355159,-0.0059204,0.0588505,0.,0.0784461,-0.0679804,0.,0.,0.,0.1355159
 ,-0.0059204,0.0588505,0.,0.0784461,-0.0679804,0.,0.,0.,0.1355159,-0.00
 59204,-0.0588505,0.,-0.0784461,-0.0679804,0.,0.,0.,0.1355159\Polar=30.
 7805901,0.,20.4081583,0.,0.,8.5113224\PG=D02H [C2"(C1.C1),SG(H4)]\NIma
 g=0\\0.88039153,0.,0.64093031,0.,0.,0.10754466,-0.58905525,0.,0.,0.880
 39153,0.,-0.11562276,0.,0.,0.64093031,0.,0.,-0.04531348,0.,0.,0.107544
 66,-0.13213148,-0.12116407,0.,-0.01353665,-0.03018973,0.,0.13890191,-0
 .12488668,-0.26676169,0.,0.00165834,0.00410792,0.,0.13652058,0.2767110
 0,0.,0.,-0.03607502,0.,0.,0.00495943,0.,0.,0.02420728,-0.13213148,0.12
 116407,0.,-0.01353665,0.03018973,0.,0.01034340,-0.01388349,0.,0.138901
 91,0.12488668,-0.26676169,0.,-0.00165834,0.00410792,0.,0.01388349,-0.0
 1699310,0.,-0.13652058,0.27671100,0.,0.,-0.03607502,0.,0.,0.00495943,0
 .,0.,0.00236646,0.,0.,0.02420728,-0.01353665,0.03018973,0.,-0.13213148
 ,0.12116407,0.,0.00145243,-0.00017924,0.,-0.00502961,-0.00077049,0.,0.
 13890191,-0.00165834,0.00410792,0.,0.12488668,-0.26676169,0.,0.0001792
 4,0.00137339,0.,-0.00077049,0.00156248,0.,-0.13652058,0.27671100,0.,0.
 ,0.00495943,0.,0.,-0.03607502,0.,0.,-0.00864491,0.,0.,0.01318676,0.,0.
 ,0.02420728,-0.01353665,-0.03018973,0.,-0.13213148,-0.12116407,0.,-0.0
 0502961,0.00077049,0.,0.00145243,0.00017924,0.,0.01034340,0.01388349,0
 .,0.13890191,0.00165834,0.00410792,0.,-0.12488668,-0.26676169,0.,0.000
 77049,0.00156248,0.,-0.00017924,0.00137339,0.,-0.01388349,-0.01699310,
 0.,0.13652058,0.27671100,0.,0.,0.00495943,0.,0.,-0.03607502,0.,0.,0.01
 318676,0.,0.,-0.00864491,0.,0.,0.00236646,0.,0.,0.02420728\\0.00000336
 ,0.,0.,-0.00000336,0.,0.,0.00000189,0.00000657,0.,0.00000189,-0.000006
 57,0.,-0.00000189,0.00000657,0.,-0.00000189,-0.00000657,0.\\\@


 OUR LITTLE SYSTEMS HAVE THEIR DAY,    
   THEY HAVE THEIR DAY AND CEASE TO BE.
   THEY ARE BUT BROKEN LIGHTS OF THEE, 
 AND THOU, OH LORD, ART MORE THAN THEY.
          -------------------          
 LET KNOWLEDGE GROW FROM MORE TO MORE, 
   BUT MORE OF REVERENCE IN US DWELL.  
   THAT MIND AND SOUL, ACCORDING WELL, 
 MAY MAKE ONE MUSIC AS BEFORE.....     
          -------------------          
                    LORD TENNYSON      
 Job cpu time:  0 days  0 hours  0 minutes  6.5 seconds.
 File lengths (MBytes):  RWF=      5 Int=      0 D2E=      0 Chk=      1 Scr=      1
 Normal termination of Gaussian 09 at Fri Apr  9 18:58:12 2021.
