 Entering Gaussian System, Link 0=g09
 Input=ethylene-anion-displacement.com
 Output=ethylene-anion-displacement.log
 Initial command:
 /home/beto/gaussian09/g09/l1.exe /home/beto/gaussian09/scratch/Gau-101534.inp -scrdir=/home/beto/gaussian09/scratch/
 Entering Link 1 = /home/beto/gaussian09/g09/l1.exe PID=    101536.
  
 Copyright (c) 1988,1990,1992,1993,1995,1998,2003,2009,2011,
            Gaussian, Inc.  All Rights Reserved.
  
 This is part of the Gaussian(R) 09 program.  It is based on
 the Gaussian(R) 03 system (copyright 2003, Gaussian, Inc.),
 the Gaussian(R) 98 system (copyright 1998, Gaussian, Inc.),
 the Gaussian(R) 94 system (copyright 1995, Gaussian, Inc.),
 the Gaussian 92(TM) system (copyright 1992, Gaussian, Inc.),
 the Gaussian 90(TM) system (copyright 1990, Gaussian, Inc.),
 the Gaussian 88(TM) system (copyright 1988, Gaussian, Inc.),
 the Gaussian 86(TM) system (copyright 1986, Carnegie Mellon
 University), and the Gaussian 82(TM) system (copyright 1983,
 Carnegie Mellon University). Gaussian is a federally registered
 trademark of Gaussian, Inc.
  
 This software contains proprietary and confidential information,
 including trade secrets, belonging to Gaussian, Inc.
  
 This software is provided under written license and may be
 used, copied, transmitted, or stored only in accord with that
 written license.
  
 The following legend is applicable only to US Government
 contracts under FAR:
  
                    RESTRICTED RIGHTS LEGEND
  
 Use, reproduction and disclosure by the US Government is
 subject to restrictions as set forth in subparagraphs (a)
 and (c) of the Commercial Computer Software - Restricted
 Rights clause in FAR 52.227-19.
  
 Gaussian, Inc.
 340 Quinnipiac St., Bldg. 40, Wallingford CT 06492
  
  
 ---------------------------------------------------------------
 Warning -- This program may not be used in any manner that
 competes with the business of Gaussian, Inc. or will provide
 assistance to any competitor of Gaussian, Inc.  The licensee
 of this program is prohibited from giving any competitor of
 Gaussian, Inc. access to this program.  By using this program,
 the user acknowledges that Gaussian, Inc. is engaged in the
 business of creating and licensing software in the field of
 computational chemistry and represents and warrants to the
 licensee that it is not a competitor of Gaussian, Inc. and that
 it will not use this program in any manner prohibited above.
 ---------------------------------------------------------------
  

 Cite this work as:
 Gaussian 09, Revision C.01,
 M. J. Frisch, G. W. Trucks, H. B. Schlegel, G. E. Scuseria, 
 M. A. Robb, J. R. Cheeseman, G. Scalmani, V. Barone, B. Mennucci, 
 G. A. Petersson, H. Nakatsuji, M. Caricato, X. Li, H. P. Hratchian, 
 A. F. Izmaylov, J. Bloino, G. Zheng, J. L. Sonnenberg, M. Hada, 
 M. Ehara, K. Toyota, R. Fukuda, J. Hasegawa, M. Ishida, T. Nakajima, 
 Y. Honda, O. Kitao, H. Nakai, T. Vreven, J. A. Montgomery, Jr., 
 J. E. Peralta, F. Ogliaro, M. Bearpark, J. J. Heyd, E. Brothers, 
 K. N. Kudin, V. N. Staroverov, T. Keith, R. Kobayashi, J. Normand, 
 K. Raghavachari, A. Rendell, J. C. Burant, S. S. Iyengar, J. Tomasi, 
 M. Cossi, N. Rega, J. M. Millam, M. Klene, J. E. Knox, J. B. Cross, 
 V. Bakken, C. Adamo, J. Jaramillo, R. Gomperts, R. E. Stratmann, 
 O. Yazyev, A. J. Austin, R. Cammi, C. Pomelli, J. W. Ochterski, 
 R. L. Martin, K. Morokuma, V. G. Zakrzewski, G. A. Voth, 
 P. Salvador, J. J. Dannenberg, S. Dapprich, A. D. Daniels, 
 O. Farkas, J. B. Foresman, J. V. Ortiz, J. Cioslowski, 
 and D. J. Fox, Gaussian, Inc., Wallingford CT, 2010.
 
 ******************************************
 Gaussian 09:  EM64L-G09RevC.01 23-Sep-2011
                 9-Apr-2021 
 ******************************************
 %NProcShared=4
 Will use up to    4 processors via shared memory.
 %Mem=2GB
 %oldchk=ethylene-anion.chk
 %chk=anion
 Copying data from "ethylene-anion.chk" to current chk file "anion.chk".
 ------------------------------------------
 # B3LYP/6-31+G(d,p) Freq=SaveNM Geom=Check
 ------------------------------------------
 1/10=4,29=2,30=1,38=1/1,3;
 2/12=2,40=1/2;
 3/5=1,6=6,7=111,11=2,14=-4,16=1,25=1,30=1,71=2,74=-5/1,2,3;
 4//1;
 5/5=2,38=5,98=1/2;
 8/6=4,10=90,11=11/1;
 11/6=1,8=1,9=11,15=111,16=1/1,2,10;
 10/6=1/2;
 6/7=2,8=2,9=2,10=2,18=1,28=1/1;
 7/8=1,10=1,25=1,92=1/1,2,3,16;
 1/10=4,30=1/3;
 99//99;
 -----
 anion
 -----
 Structure from the checkpoint file:  anion.chk
 Charge = -1 Multiplicity = 2
 Redundant internal coordinates found in file.
 C,0,0.7223204967,0.,0.
 C,0,-0.7223204967,0.,0.
 H,0,1.3021956183,0.9255984223,0.
 H,0,1.3021956183,-0.9255984223,0.
 H,0,-1.3021956183,0.9255984223,0.
 H,0,-1.3021956183,-0.9255984223,0.
 Recover connectivity data from disk.

 GradGradGradGradGradGradGradGradGradGradGradGradGradGradGradGradGradGrad
 Berny optimization.
 Initialization pass.
                           ----------------------------
                           !    Initial Parameters    !
                           ! (Angstroms and Degrees)  !
 --------------------------                            --------------------------
 ! Name  Definition              Value          Derivative Info.                !
 --------------------------------------------------------------------------------
 ! R1    R(1,2)                  1.4446         calculate D2E/DX2 analytically  !
 ! R2    R(1,3)                  1.0922         calculate D2E/DX2 analytically  !
 ! R3    R(1,4)                  1.0922         calculate D2E/DX2 analytically  !
 ! R4    R(2,5)                  1.0922         calculate D2E/DX2 analytically  !
 ! R5    R(2,6)                  1.0922         calculate D2E/DX2 analytically  !
 ! A1    A(2,1,3)              122.0666         calculate D2E/DX2 analytically  !
 ! A2    A(2,1,4)              122.0666         calculate D2E/DX2 analytically  !
 ! A3    A(3,1,4)              115.8668         calculate D2E/DX2 analytically  !
 ! A4    A(1,2,5)              122.0666         calculate D2E/DX2 analytically  !
 ! A5    A(1,2,6)              122.0666         calculate D2E/DX2 analytically  !
 ! A6    A(5,2,6)              115.8668         calculate D2E/DX2 analytically  !
 ! D1    D(3,1,2,5)              0.0            calculate D2E/DX2 analytically  !
 ! D2    D(3,1,2,6)            180.0            calculate D2E/DX2 analytically  !
 ! D3    D(4,1,2,5)            180.0            calculate D2E/DX2 analytically  !
 ! D4    D(4,1,2,6)              0.0            calculate D2E/DX2 analytically  !
 --------------------------------------------------------------------------------
 Trust Radius=3.00D-01 FncErr=1.00D-07 GrdErr=1.00D-07
 Number of steps in this run=      2 maximum allowed number of steps=      2.
 GradGradGradGradGradGradGradGradGradGradGradGradGradGradGradGradGradGrad

                          Input orientation:                          
 ---------------------------------------------------------------------
 Center     Atomic      Atomic             Coordinates (Angstroms)
 Number     Number       Type             X           Y           Z
 ---------------------------------------------------------------------
      1          6           0        0.722320    0.000000    0.000000
      2          6           0       -0.722320    0.000000    0.000000
      3          1           0        1.302196    0.925598    0.000000
      4          1           0        1.302196   -0.925598    0.000000
      5          1           0       -1.302196    0.925598    0.000000
      6          1           0       -1.302196   -0.925598    0.000000
 ---------------------------------------------------------------------
                    Distance matrix (angstroms):
                    1          2          3          4          5
     1  C    0.000000
     2  C    1.444641   0.000000
     3  H    1.092240   2.226072   0.000000
     4  H    1.092240   2.226072   1.851197   0.000000
     5  H    2.226072   1.092240   2.604391   3.195275   0.000000
     6  H    2.226072   1.092240   3.195275   2.604391   1.851197
                    6
     6  H    0.000000
 Stoichiometry    C2H4(1-,2)
 Framework group  D2H[C2"(C.C),SG(H4)]
 Deg. of freedom     3
 Full point group                 D2H     NOp   8
 Largest Abelian subgroup         D2H     NOp   8
 Largest concise Abelian subgroup D2      NOp   4
                         Standard orientation:                         
 ---------------------------------------------------------------------
 Center     Atomic      Atomic             Coordinates (Angstroms)
 Number     Number       Type             X           Y           Z
 ---------------------------------------------------------------------
      1          6           0        0.000000    0.000000    0.722320
      2          6           0        0.000000    0.000000   -0.722320
      3          1           0        0.000000    0.925598    1.302196
      4          1           0        0.000000   -0.925598    1.302196
      5          1           0        0.000000    0.925598   -1.302196
      6          1           0        0.000000   -0.925598   -1.302196
 ---------------------------------------------------------------------
 Rotational constants (GHZ):    146.3278024     26.1071795     22.1544733
 Standard basis: 6-31+G(d,p) (6D, 7F)
 There are    14 symmetry adapted basis functions of AG  symmetry.
 There are     2 symmetry adapted basis functions of B1G symmetry.
 There are     5 symmetry adapted basis functions of B2G symmetry.
 There are     8 symmetry adapted basis functions of B3G symmetry.
 There are     2 symmetry adapted basis functions of AU  symmetry.
 There are    14 symmetry adapted basis functions of B1U symmetry.
 There are     8 symmetry adapted basis functions of B2U symmetry.
 There are     5 symmetry adapted basis functions of B3U symmetry.
 Integral buffers will be    131072 words long.
 Raffenetti 2 integral format.
 Two-electron integral symmetry is turned on.
    58 basis functions,    92 primitive gaussians,    58 cartesian basis functions
     9 alpha electrons        8 beta electrons
       nuclear repulsion energy        31.8291864855 Hartrees.
 NAtoms=    6 NActive=    6 NUniq=    2 SFac= 4.00D+00 NAtFMM=   60 NAOKFM=F Big=F
 One-electron integrals computed using PRISM.
 NBasis=    58 RedAO= T  NBF=    14     2     5     8     2    14     8     5
 NBsUse=    58 1.00D-06 NBFU=    14     2     5     8     2    14     8     5
 Harris functional with IExCor=  402 diagonalized for initial guess.
 ExpMin= 4.38D-02 ExpMax= 3.05D+03 ExpMxC= 4.57D+02 IAcc=2 IRadAn=         4 AccDes= 0.00D+00
 HarFok:  IExCor=  402 AccDes= 0.00D+00 IRadAn=         4 IDoV= 1
 ScaDFX=  1.000000  1.000000  1.000000  1.000000
 FoFCou: FMM=F IPFlag=           0 FMFlag=      100000 FMFlg1=           0
         NFxFlg=           0 DoJE=T BraDBF=F KetDBF=T FulRan=T
         Omega=  0.000000  0.000000  1.000000  0.000000  0.000000 ICntrl=     500 IOpCl=  0
         NMat0=    1 NMatS0=    1 NMatT0=    0 NMatD0=    1 NMtDS0=    0 NMtDT0=    0
         I1Cent=           4 NGrid=           0.
 Petite list used in FoFCou.
 Initial guess orbital symmetries:
 Alpha Orbitals:
       Occupied  (AG) (B1U) (AG) (B1U) (B2U) (AG) (B3G) (B3U) (B2G)
       Virtual   (AG) (B1U) (B2U) (B3U) (B3G) (AG) (B2G) (B2U)
                 (AG) (B1U) (B1U) (B1U) (B3G) (AG) (B2U) (B1U)
                 (B3U) (B2G) (AG) (B3G) (B2U) (AG) (B1U) (B3G)
                 (B1U) (B3U) (B1G) (AU) (AG) (AG) (B2U) (B1U) (B3G)
                 (B2G) (B2U) (B3U) (B1G) (B1U) (B2G) (AU) (B3G)
                 (AG) (B1U) (AG) (B2U) (B1U) (B3G) (AG) (B1U)
 Beta  Orbitals:
       Occupied  (AG) (B1U) (AG) (B1U) (B2U) (AG) (B3G) (B3U)
       Virtual   (B2G) (AG) (B1U) (B2U) (B3U) (B3G) (AG) (B2G)
                 (B2U) (AG) (B1U) (B1U) (B1U) (B3G) (AG) (B2U)
                 (B1U) (B3U) (B2G) (AG) (B3G) (B2U) (AG) (B1U)
                 (B3G) (B1U) (B3U) (B1G) (AU) (AG) (AG) (B2U) (B1U)
                 (B3G) (B2G) (B2U) (B3U) (B1G) (B1U) (B2G) (AU)
                 (B3G) (AG) (B1U) (AG) (B2U) (B1U) (B3G) (AG) (B1U)
 The electronic state of the initial guess is 2-B2G.
 Initial guess <Sx>= 0.0000 <Sy>= 0.0000 <Sz>= 0.5000 <S**2>= 0.7500 S= 0.5000
 Requested convergence on RMS density matrix=1.00D-08 within 128 cycles.
 Requested convergence on MAX density matrix=1.00D-06.
 Requested convergence on             energy=1.00D-06.
 No special actions if energy rises.
 Keep R1 and R2 ints in memory in canonical form, NReq=3886123.
 SCF Done:  E(UB3LYP) =  -78.5395427421     A.U. after   13 cycles
             Convg  =    0.1369D-09             -V/T =  2.0117
 <Sx>= 0.0000 <Sy>= 0.0000 <Sz>= 0.5000 <S**2>= 0.7528 S= 0.5014
 <L.S>= 0.000000000000E+00
 Annihilation of the first spin contaminant:
 S**2 before annihilation     0.7528,   after     0.7500
 Range of M.O.s used for correlation:     1    58
 NBasis=    58 NAE=     9 NBE=     8 NFC=     0 NFV=     0
 NROrb=     58 NOA=     9 NOB=     8 NVA=    49 NVB=    50

 **** Warning!!: The largest alpha MO coefficient is  0.30116670D+02


 **** Warning!!: The smallest alpha delta epsilon is  0.50319907D-01


 **** Warning!!: The largest beta MO coefficient is  0.29316265D+02

 Symmetrizing basis deriv contribution to polar:
 IMax=3 JMax=2 DiffMx= 0.00D+00
 G2DrvN: will do     7 centers at a time, making    1 passes doing MaxLOS=2.
 Calling FoFCou, ICntrl=  3107 FMM=F I1Cent=   0 AccDes= 0.00D+00.
 FoFDir/FoFCou used for L=0 through L=2.
 End of G2Drv Frequency-dependent properties file   721 does not exist.
 End of G2Drv Frequency-dependent properties file   722 does not exist.
          IDoAtm=111111
          Differentiating once with respect to electric field.
                with respect to dipole field.
          Differentiating once with respect to nuclear coordinates.
          Keep R1 and R2 ints in memory in canonical form, NReq=3751879.
          There are     9 degrees of freedom in the 1st order CPHF.  IDoFFX=4.
      9 vectors produced by pass  0 Test12= 9.34D-15 1.11D-08 XBig12= 7.48D+02 2.48D+01.
 AX will form     9 AO Fock derivatives at one time.
      9 vectors produced by pass  1 Test12= 9.34D-15 1.11D-08 XBig12= 1.07D+02 4.88D+00.
      9 vectors produced by pass  2 Test12= 9.34D-15 1.11D-08 XBig12= 7.65D+00 1.31D+00.
      9 vectors produced by pass  3 Test12= 9.34D-15 1.11D-08 XBig12= 1.76D-01 2.01D-01.
      9 vectors produced by pass  4 Test12= 9.34D-15 1.11D-08 XBig12= 4.48D-03 1.83D-02.
      9 vectors produced by pass  5 Test12= 9.34D-15 1.11D-08 XBig12= 2.27D-05 1.39D-03.
      9 vectors produced by pass  6 Test12= 9.34D-15 1.11D-08 XBig12= 9.04D-08 9.56D-05.
      7 vectors produced by pass  7 Test12= 9.34D-15 1.11D-08 XBig12= 8.56D-10 1.24D-05.
      4 vectors produced by pass  8 Test12= 9.34D-15 1.11D-08 XBig12= 5.24D-12 9.37D-07.
      2 vectors produced by pass  9 Test12= 9.34D-15 1.11D-08 XBig12= 2.94D-14 5.53D-08.
 Inverted reduced A of dimension    76 with in-core refinement.
 Isotropic polarizability for W=    0.000000      205.03 Bohr**3.
 End of Minotr Frequency-dependent properties file   721 does not exist.
 End of Minotr Frequency-dependent properties file   722 does not exist.

 **********************************************************************

            Population analysis using the SCF density.

 **********************************************************************

 Orbital symmetries:
 Alpha Orbitals:
       Occupied  (AG) (B1U) (AG) (B1U) (B2U) (AG) (B3G) (B3U) (B2G)
       Virtual   (B1U) (AG) (B2U) (B3G) (B3U) (AG) (B2G) (B1U)
                 (AG) (B2U) (B1U) (B1U) (B3G) (AG) (B2U) (B3U)
                 (B1U) (B2G) (AG) (B2U) (B3G) (AG) (B1U) (B1U)
                 (B3G) (B3U) (B1G) (AU) (AG) (AG) (B2U) (B1U) (B3G)
                 (B2G) (B2U) (B3U) (B1G) (B1U) (B2G) (AU) (B3G)
                 (AG) (B1U) (AG) (B2U) (B1U) (B3G) (AG) (B1U)
 Beta  Orbitals:
       Occupied  (AG) (B1U) (AG) (B1U) (B2U) (AG) (B3G) (B3U)
       Virtual   (B1U) (AG) (B2G) (B2U) (B3G) (B3U) (AG) (B2G)
                 (B1U) (AG) (B2U) (B1U) (B3G) (B1U) (AG) (B2U)
                 (B3U) (B1U) (B2G) (AG) (B2U) (B3G) (AG) (B1U)
                 (B3G) (B1U) (B3U) (B1G) (AU) (AG) (AG) (B2U) (B1U)
                 (B3G) (B2G) (B2U) (B3U) (B1G) (B1U) (B2G) (AU)
                 (B3G) (AG) (B1U) (AG) (B2U) (B1U) (B3G) (AG) (B1U)
 The electronic state is 2-B2G.
 Alpha  occ. eigenvalues --   -9.96464  -9.96427  -0.50931  -0.36828  -0.23307
 Alpha  occ. eigenvalues --   -0.18138  -0.14648  -0.04730   0.12028
 Alpha virt. eigenvalues --    0.17060   0.17577   0.20597   0.22274   0.22320
 Alpha virt. eigenvalues --    0.24968   0.26464   0.30030   0.37638   0.38807
 Alpha virt. eigenvalues --    0.41979   0.52005   0.52243   0.81182   0.84815
 Alpha virt. eigenvalues --    0.89283   0.91308   0.91557   1.03761   1.11692
 Alpha virt. eigenvalues --    1.11798   1.16228   1.19516   1.33849   1.34384
 Alpha virt. eigenvalues --    1.59305   1.62580   1.73006   2.07298   2.10526
 Alpha virt. eigenvalues --    2.13781   2.24125   2.26978   2.29572   2.41044
 Alpha virt. eigenvalues --    2.57859   2.67879   2.69536   2.78145   2.84585
 Alpha virt. eigenvalues --    2.86174   2.93898   3.20135   3.40633   3.52553
 Alpha virt. eigenvalues --    3.63686   3.90116   4.43564   4.71385
  Beta  occ. eigenvalues --   -9.96012  -9.95972  -0.49713  -0.35421  -0.22946
  Beta  occ. eigenvalues --   -0.17725  -0.14324  -0.01247
  Beta virt. eigenvalues --    0.17191   0.17916   0.18668   0.20477   0.22279
  Beta virt. eigenvalues --    0.23087   0.24730   0.29886   0.30667   0.38249
  Beta virt. eigenvalues --    0.38782   0.43153   0.52479   0.52723   0.81625
  Beta virt. eigenvalues --    0.84997   0.91344   0.92027   0.94354   1.04301
  Beta virt. eigenvalues --    1.11613   1.12074   1.16707   1.20123   1.34658
  Beta virt. eigenvalues --    1.35157   1.61175   1.64209   1.74595   2.07536
  Beta virt. eigenvalues --    2.13141   2.13949   2.25095   2.27066   2.30865
  Beta virt. eigenvalues --    2.40891   2.58506   2.68647   2.70946   2.79682
  Beta virt. eigenvalues --    2.85705   2.86205   2.93972   3.20389   3.40681
  Beta virt. eigenvalues --    3.52744   3.63947   3.90482   4.44683   4.72574
          Condensed to atoms (all electrons):
              1          2          3          4          5          6
     1  C    6.662543  -0.731923   0.403995   0.403995  -0.041701  -0.041701
     2  C   -0.731923   6.662543  -0.041701  -0.041701   0.403995   0.403995
     3  H    0.403995  -0.041701   0.607563  -0.044920  -0.006550   0.004010
     4  H    0.403995  -0.041701  -0.044920   0.607563   0.004010  -0.006550
     5  H   -0.041701   0.403995  -0.006550   0.004010   0.607563  -0.044920
     6  H   -0.041701   0.403995   0.004010  -0.006550  -0.044920   0.607563
 Mulliken atomic charges:
              1
     1  C   -0.655206
     2  C   -0.655206
     3  H    0.077603
     4  H    0.077603
     5  H    0.077603
     6  H    0.077603
 Sum of Mulliken atomic charges =  -1.00000
 Mulliken charges with hydrogens summed into heavy atoms:
              1
     1  C   -0.500000
     2  C   -0.500000
 Sum of Mulliken charges with hydrogens summed into heavy atoms =  -1.00000
          Atomic-Atomic Spin Densities.
              1          2          3          4          5          6
     1  C    1.970601  -1.431074   0.012472   0.012472  -0.010393  -0.010393
     2  C   -1.431074   1.970601  -0.010393  -0.010393   0.012472   0.012472
     3  H    0.012472  -0.010393  -0.023738  -0.000567   0.000590  -0.000206
     4  H    0.012472  -0.010393  -0.000567  -0.023738  -0.000206   0.000590
     5  H   -0.010393   0.012472   0.000590  -0.000206  -0.023738  -0.000567
     6  H   -0.010393   0.012472  -0.000206   0.000590  -0.000567  -0.023738
 Mulliken atomic spin densities:
              1
     1  C    0.543685
     2  C    0.543685
     3  H   -0.021842
     4  H   -0.021842
     5  H   -0.021842
     6  H   -0.021842
 Sum of Mulliken atomic spin densities =   1.00000
 APT atomic charges:
              1
     1  C   -0.344920
     2  C   -0.344920
     3  H   -0.077540
     4  H   -0.077540
     5  H   -0.077540
     6  H   -0.077540
 Sum of APT charges=  -1.00000
 APT Atomic charges with hydrogens summed into heavy atoms:
              1
     1  C   -0.500000
     2  C   -0.500000
     3  H    0.000000
     4  H    0.000000
     5  H    0.000000
     6  H    0.000000
 Sum of APT charges=  -1.00000
 Electronic spatial extent (au):  <R**2>=            114.3711
 Charge=             -1.0000 electrons
 Dipole moment (field-independent basis, Debye):
    X=              0.0000    Y=              0.0000    Z=              0.0000  Tot=              0.0000
 Quadrupole moment (field-independent basis, Debye-Ang):
   XX=            -29.2142   YY=            -18.5545   ZZ=            -26.9520
   XY=              0.0000   XZ=              0.0000   YZ=              0.0000
 Traceless Quadrupole moment (field-independent basis, Debye-Ang):
   XX=             -4.3073   YY=              6.3524   ZZ=             -2.0451
   XY=              0.0000   XZ=              0.0000   YZ=              0.0000
 Octapole moment (field-independent basis, Debye-Ang**2):
  XXX=              0.0000  YYY=              0.0000  ZZZ=              0.0000  XYY=              0.0000
  XXY=              0.0000  XXZ=              0.0000  XZZ=              0.0000  YZZ=              0.0000
  YYZ=              0.0000  XYZ=              0.0000
 Hexadecapole moment (field-independent basis, Debye-Ang**3):
 XXXX=           -106.0569 YYYY=            -52.3810 ZZZZ=           -173.1338 XXXY=              0.0000
 XXXZ=              0.0000 YYYX=              0.0000 YYYZ=              0.0000 ZZZX=              0.0000
 ZZZY=              0.0000 XXYY=            -26.8469 XXZZ=            -66.3182 YYZZ=            -35.7494
 XXYZ=              0.0000 YYXZ=              0.0000 ZZXY=              0.0000
 N-N= 3.182918648548D+01 E-N=-3.697613555376D+02  KE= 1.160074019099D+02
 Symmetry AG   KE= 5.549673455965D+01
 Symmetry B1G  KE= 9.626921373706D-34
 Symmetry B2G  KE= 7.691484320637D-01
 Symmetry B3G  KE= 2.986259299721D+00
 Symmetry AU   KE= 1.037275295408D-33
 Symmetry B1U  KE= 5.141085748489D+01
 Symmetry B2U  KE= 2.670471003995D+00
 Symmetry B3U  KE= 2.673931129613D+00
  Exact polarizability: 474.779   0.000  25.061   0.000   0.000 115.264
 Approx polarizability: 129.804   0.000  30.555   0.000   0.000  89.979
                          Isotropic Fermi Contact Couplings
        Atom                 a.u.       MegaHertz       Gauss      10(-4) cm-1
     1  C(13)              0.03017      33.91225      12.10073      11.31191
     2  C(13)              0.03017      33.91225      12.10073      11.31191
     3  H(1)              -0.00582     -26.03561      -9.29015      -8.68455
     4  H(1)              -0.00582     -26.03561      -9.29015      -8.68455
     5  H(1)              -0.00582     -26.03561      -9.29015      -8.68455
     6  H(1)              -0.00582     -26.03561      -9.29015      -8.68455
 --------------------------------------------------------
       Center         ----  Spin Dipole Couplings  ----
                      3XX-RR        3YY-RR        3ZZ-RR
 --------------------------------------------------------
     1   Atom        0.369781     -0.190057     -0.179724
     2   Atom        0.369781     -0.190057     -0.179724
     3   Atom        0.005356      0.009081     -0.014437
     4   Atom        0.005356      0.009081     -0.014437
     5   Atom        0.005356      0.009081     -0.014437
     6   Atom        0.005356      0.009081     -0.014437
 --------------------------------------------------------
                        XY            XZ            YZ
 --------------------------------------------------------
     1   Atom        0.000000      0.000000      0.000000
     2   Atom        0.000000      0.000000      0.000000
     3   Atom        0.000000      0.000000      0.023163
     4   Atom        0.000000      0.000000     -0.023163
     5   Atom        0.000000      0.000000     -0.023163
     6   Atom        0.000000      0.000000      0.023163
 --------------------------------------------------------


 ---------------------------------------------------------------------------------
              Anisotropic Spin Dipole Couplings in Principal Axis System
 ---------------------------------------------------------------------------------

       Atom             a.u.   MegaHertz   Gauss  10(-4) cm-1        Axes

              Baa    -0.1901   -25.504    -9.100    -8.507  0.0000  1.0000  0.0000
     1 C(13)  Bbb    -0.1797   -24.117    -8.606    -8.045  0.0000  0.0000  1.0000
              Bcc     0.3698    49.621    17.706    16.552  1.0000  0.0000  0.0000
 
              Baa    -0.1901   -25.504    -9.100    -8.507  0.0000  1.0000  0.0000
     2 C(13)  Bbb    -0.1797   -24.117    -8.606    -8.045  0.0000  0.0000  1.0000
              Bcc     0.3698    49.621    17.706    16.552  1.0000  0.0000  0.0000
 
              Baa    -0.0287   -15.289    -5.456    -5.100  0.0000 -0.5231  0.8523
     3 H(1)   Bbb     0.0054     2.858     1.020     0.953  1.0000  0.0000  0.0000
              Bcc     0.0233    12.432     4.436     4.147  0.0000  0.8523  0.5231
 
              Baa    -0.0287   -15.289    -5.456    -5.100  0.0000  0.5231  0.8523
     4 H(1)   Bbb     0.0054     2.858     1.020     0.953  1.0000  0.0000  0.0000
              Bcc     0.0233    12.432     4.436     4.147  0.0000  0.8523 -0.5231
 
              Baa    -0.0287   -15.289    -5.456    -5.100  0.0000  0.5231  0.8523
     5 H(1)   Bbb     0.0054     2.858     1.020     0.953  1.0000  0.0000  0.0000
              Bcc     0.0233    12.432     4.436     4.147  0.0000  0.8523 -0.5231
 
              Baa    -0.0287   -15.289    -5.456    -5.100  0.0000 -0.5231  0.8523
     6 H(1)   Bbb     0.0054     2.858     1.020     0.953  1.0000  0.0000  0.0000
              Bcc     0.0233    12.432     4.436     4.147  0.0000  0.8523  0.5231
 

 ---------------------------------------------------------------------------------

 Calling FoFJK, ICntrl=    100127 FMM=F ISym2X=1 I1Cent= 0 IOpClX= 1 NMat=1 NMatS=1 NMatT=0.
 Full mass-weighted force constant matrix:
 Low frequencies --- -249.5581   -0.0008    0.0010    0.0013   99.9919  162.4439
 Low frequencies ---  168.7594  362.2104  543.4701
 ******    1 imaginary frequencies (negative Signs) ****** 
 Harmonic frequencies (cm**-1), IR intensities (KM/Mole), Raman scattering
 activities (A**4/AMU), depolarization ratios for plane and unpolarized
 incident light, reduced masses (AMU), force constants (mDyne/A),
 and normal coordinates:
                     1                      2                      3
                    B2G                    B3U                    AU
 Frequencies --  -249.0047               362.2104               543.4701
 Red. masses --     1.4897                 1.1607                 1.0078
 Frc consts  --     0.0544                 0.0897                 0.1754
 IR Inten    --     0.0000                29.1395                 0.0000
  Atom  AN      X      Y      Z        X      Y      Z        X      Y      Z
     1   6     0.15   0.00   0.00     0.08   0.00   0.00     0.00   0.00   0.00
     2   6    -0.15   0.00   0.00     0.08   0.00   0.00     0.00   0.00   0.00
     3   1    -0.49   0.00   0.00    -0.50   0.00   0.00     0.50   0.00   0.00
     4   1    -0.49   0.00   0.00    -0.50   0.00   0.00    -0.50   0.00   0.00
     5   1     0.49   0.00   0.00    -0.50   0.00   0.00    -0.50   0.00   0.00
     6   1     0.49   0.00   0.00    -0.50   0.00   0.00     0.50   0.00   0.00
                     4                      5                      6
                    B2U                    AG                     B3G
 Frequencies --   782.1659              1093.8649              1174.0608
 Red. masses --     1.0433                 3.2220                 1.4809
 Frc consts  --     0.3761                 2.2714                 1.2027
 IR Inten    --     0.8062                 0.0000                 0.0000
  Atom  AN      X      Y      Z        X      Y      Z        X      Y      Z
     1   6     0.00  -0.04   0.00     0.00   0.00   0.32     0.00   0.15   0.00
     2   6     0.00  -0.04   0.00     0.00   0.00  -0.32     0.00  -0.15   0.00
     3   1     0.00   0.24  -0.44     0.00  -0.05   0.44     0.00  -0.15   0.46
     4   1     0.00   0.24   0.44     0.00   0.05   0.44     0.00  -0.15  -0.46
     5   1     0.00   0.24   0.44     0.00  -0.05  -0.44     0.00   0.15   0.46
     6   1     0.00   0.24  -0.44     0.00   0.05  -0.44     0.00   0.15  -0.46
                     7                      8                      9
                    B1U                    AG                     B1U
 Frequencies --  1435.5108              1485.9322              3082.4061
 Red. masses --     1.1135                 1.2314                 1.0463
 Frc consts  --     1.3520                 1.6020                 5.8573
 IR Inten    --     0.1482                 0.0000                69.0249
  Atom  AN      X      Y      Z        X      Y      Z        X      Y      Z
     1   6     0.00   0.00   0.07     0.00   0.00  -0.10     0.00   0.00   0.04
     2   6     0.00   0.00   0.07     0.00   0.00   0.10     0.00   0.00   0.04
     3   1     0.00   0.28  -0.41     0.00  -0.30   0.39     0.00  -0.43  -0.25
     4   1     0.00  -0.28  -0.41     0.00   0.30   0.39     0.00   0.43  -0.25
     5   1     0.00  -0.28  -0.41     0.00  -0.30  -0.39     0.00   0.43  -0.25
     6   1     0.00   0.28  -0.41     0.00   0.30  -0.39     0.00  -0.43  -0.25
                    10                     11                     12
                    AG                     B3G                    B2U
 Frequencies --  3099.2908              3145.9428              3173.1798
 Red. masses --     1.0578                 1.1121                 1.1170
 Frc consts  --     5.9866                 6.4846                 6.6264
 IR Inten    --     0.0000                 0.0000               139.6441
  Atom  AN      X      Y      Z        X      Y      Z        X      Y      Z
     1   6     0.00   0.00  -0.05     0.00  -0.07   0.00     0.00   0.07   0.00
     2   6     0.00   0.00   0.05     0.00   0.07   0.00     0.00   0.07   0.00
     3   1     0.00   0.43   0.25     0.00   0.42   0.27     0.00  -0.42  -0.27
     4   1     0.00  -0.43   0.25     0.00   0.42  -0.27     0.00  -0.42   0.27
     5   1     0.00   0.43  -0.25     0.00  -0.42   0.27     0.00  -0.42   0.27
     6   1     0.00  -0.43  -0.25     0.00  -0.42  -0.27     0.00  -0.42  -0.27

 -------------------
 - Thermochemistry -
 -------------------
 Temperature   298.150 Kelvin.  Pressure   1.00000 Atm.
 Atom     1 has atomic number  6 and mass  12.00000
 Atom     2 has atomic number  6 and mass  12.00000
 Atom     3 has atomic number  1 and mass   1.00783
 Atom     4 has atomic number  1 and mass   1.00783
 Atom     5 has atomic number  1 and mass   1.00783
 Atom     6 has atomic number  1 and mass   1.00783
 Molecular mass:    28.03130 amu.
 Principal axes and moments of inertia in atomic units:
                           1         2         3
     Eigenvalues --    12.33355  69.12816  81.46171
           X            0.00000   0.00000   1.00000
           Y            0.00000   1.00000   0.00000
           Z            1.00000   0.00000   0.00000
 This molecule is an asymmetric top.
 Rotational symmetry number  4.
 Rotational temperatures (Kelvin)      7.02262     1.25295     1.06325
 Rotational constants (GHZ):         146.32780    26.10718    22.15447
    1 imaginary frequencies ignored.
 Zero-point vibrational energy     115906.4 (Joules/Mol)
                                   27.70229 (Kcal/Mol)
 Warning -- explicit consideration of   2 degrees of freedom as
           vibrations may cause significant error
 Vibrational temperatures:    521.14   781.93  1125.36  1573.83  1689.21
          (Kelvin)           2065.38  2137.92  4434.89  4459.18  4526.30
                             4565.49
 
 Zero-point correction=                           0.044146 (Hartree/Particle)
 Thermal correction to Energy=                    0.047660
 Thermal correction to Enthalpy=                  0.048605
 Thermal correction to Gibbs Free Energy=         0.022254
 Sum of electronic and zero-point Energies=            -78.495396
 Sum of electronic and thermal Energies=               -78.491882
 Sum of electronic and thermal Enthalpies=             -78.490938
 Sum of electronic and thermal Free Energies=          -78.517289
 
                     E (Thermal)             CV                S
                      KCal/Mol        Cal/Mol-Kelvin    Cal/Mol-Kelvin
 Total                   29.907             10.027             55.460
 Electronic               0.000              0.000              1.377
 Translational            0.889              2.981             35.927
 Rotational               0.889              2.981             16.125
 Vibrational             28.130              4.065              2.031
 Vibration     1          0.736              1.550              1.113
 Vibration     2          0.899              1.154              0.558
                       Q            Log10(Q)             Ln(Q)
 Total Bot       0.580885D-10        -10.235910        -23.569053
 Total V=0       0.117486D+11         10.069986         23.187000
 Vib (Bot)       0.667583D-20        -20.175494        -46.455793
 Vib (Bot)    1  0.505287D+00         -0.296461         -0.682628
 Vib (Bot)    2  0.290567D+00         -0.536754         -1.235921
 Vib (V=0)       0.135021D+01          0.130402          0.300261
 Vib (V=0)    1  0.121086D+01          0.083092          0.191327
 Vib (V=0)    2  0.107830D+01          0.032739          0.075384
 Electronic      0.200000D+01          0.301030          0.693147
 Translational   0.583338D+07          6.765920         15.579107
 Rotational      0.745821D+03          2.872635          6.614486
 ***** Axes restored to original set *****
 -------------------------------------------------------------------
 Center     Atomic                   Forces (Hartrees/Bohr)
 Number     Number              X              Y              Z
 -------------------------------------------------------------------
      1        6          -0.019501410    0.000000000    0.000000000
      2        6           0.019501410    0.000000000    0.000000000
      3        1          -0.002416819   -0.001574354    0.000000000
      4        1          -0.002416819    0.001574354    0.000000000
      5        1           0.002416819   -0.001574354    0.000000000
      6        1           0.002416819    0.001574354    0.000000000
 -------------------------------------------------------------------
 Cartesian Forces:  Max     0.019501410 RMS     0.006641153

 GradGradGradGradGradGradGradGradGradGradGradGradGradGradGradGradGradGrad
 Berny optimization.
 Internal  Forces:  Max     0.024335047 RMS     0.006470148
 Search for a local minimum.
 Step number   1 out of a maximum of    2
 All quantities printed in internal units (Hartrees-Bohrs-Radians)
 Second derivative matrix not updated -- analytic derivatives used.
 The second derivative matrix:
                          R1        R2        R3        R4        R5
           R1           0.32379
           R2           0.00369   0.34530
           R3           0.00369   0.00335   0.34530
           R4           0.00369   0.00121   0.00003   0.34530
           R5           0.00369   0.00003   0.00121   0.00335   0.34530
           A1           0.00903   0.00454  -0.01291  -0.00304   0.00469
           A2           0.00903  -0.01291   0.00454   0.00469  -0.00304
           A3          -0.01806   0.00837   0.00837  -0.00165  -0.00165
           A4           0.00903  -0.00304   0.00469   0.00454  -0.01291
           A5           0.00903   0.00469  -0.00304  -0.01291   0.00454
           A6          -0.01806  -0.00165  -0.00165   0.00837   0.00837
           D1           0.00000   0.00000   0.00000   0.00000   0.00000
           D2           0.00000   0.00000   0.00000   0.00000   0.00000
           D3           0.00000   0.00000   0.00000   0.00000   0.00000
           D4           0.00000   0.00000   0.00000   0.00000   0.00000
                          A1        A2        A3        A4        A5
           A1           0.07311
           A2          -0.03883   0.07311
           A3          -0.03427  -0.03427   0.06855
           A4          -0.01027   0.01161  -0.00134   0.07311
           A5           0.01161  -0.01027  -0.00134  -0.03883   0.07311
           A6          -0.00134  -0.00134   0.00267  -0.03427  -0.03427
           D1           0.00000   0.00000   0.00000   0.00000   0.00000
           D2           0.00000   0.00000   0.00000   0.00000   0.00000
           D3           0.00000   0.00000   0.00000   0.00000   0.00000
           D4           0.00000   0.00000   0.00000   0.00000   0.00000
                          A6        D1        D2        D3        D4
           A6           0.06855
           D1           0.00000  -0.00030
           D2           0.00000   0.00198   0.00390
           D3           0.00000   0.00198   0.00006   0.00390
           D4           0.00000   0.00426   0.00198   0.00198  -0.00030
 ITU=  0
     Eigenvalues ---   -0.00456   0.00385   0.00793   0.08969   0.09761
     Eigenvalues ---    0.10177   0.13079   0.32685   0.34350   0.34379
     Eigenvalues ---    0.34862   0.35188
 Eigenvalue     1 is  -4.56D-03 should be greater than     0.000000 Eigenvector:
                          D4        D1        D2        D3        R1
   1                   -0.70711   0.70711   0.00000   0.00000   0.00000
                          A2        A5        A3        A6        A4
   1                    0.00000   0.00000   0.00000   0.00000   0.00000
 Angle between quadratic step and forces=   2.27 degrees.
 Linear search not attempted -- first point.
 Iteration  1 RMS(Cart)=  0.02658262 RMS(Int)=  0.00000617
 Iteration  2 RMS(Cart)=  0.00000710 RMS(Int)=  0.00000000
 Iteration  3 RMS(Cart)=  0.00000000 RMS(Int)=  0.00000001
 ClnCor:  largest displacement from symmetrization is 1.36D-08 for atom     5.
 Variable       Old X    -DE/DX   Delta X   Delta X   Delta X     New X
                                 (Linear)    (Quad)   (Total)
    R1        2.72998  -0.02434   0.00000  -0.07419  -0.07419   2.65579
    R2        2.06403  -0.00262   0.00000  -0.00681  -0.00681   2.05722
    R3        2.06403  -0.00262   0.00000  -0.00681  -0.00681   2.05722
    R4        2.06403  -0.00262   0.00000  -0.00681  -0.00681   2.05722
    R5        2.06403  -0.00262   0.00000  -0.00681  -0.00681   2.05722
    A1        2.13046  -0.00083   0.00000  -0.00196  -0.00196   2.12850
    A2        2.13046  -0.00083   0.00000  -0.00196  -0.00196   2.12850
    A3        2.02226   0.00167   0.00000   0.00393   0.00393   2.02618
    A4        2.13046  -0.00083   0.00000  -0.00196  -0.00196   2.12850
    A5        2.13046  -0.00083   0.00000  -0.00196  -0.00196   2.12850
    A6        2.02226   0.00167   0.00000   0.00393   0.00393   2.02618
    D1        0.00000   0.00000   0.00000   0.00000   0.00000   0.00000
    D2        3.14159   0.00000   0.00000   0.00000   0.00000   3.14159
    D3        3.14159   0.00000   0.00000   0.00000   0.00000   3.14159
    D4        0.00000   0.00000   0.00000   0.00000   0.00000   0.00000
         Item               Value     Threshold  Converged?
 Maximum Force            0.024335     0.000450     NO 
 RMS     Force            0.006470     0.000300     NO 
 Maximum Displacement     0.044136     0.001800     NO 
 RMS     Displacement     0.026579     0.001200     NO 
 Predicted change in Energy=-9.481781D-04
 GradGradGradGradGradGradGradGradGradGradGradGradGradGradGradGradGradGrad

 1\1\GINC-BUFALO\Freq\UB3LYP\6-31+G(d,p)\C2H4(1-,2)\BETO\09-Apr-2021\0\
 \# B3LYP/6-31+G(d,p) Freq=SaveNM Geom=Check\\anion\\-1,2\C,0.722320496
 7,0.,0.\C,-0.7223204967,0.,0.\H,1.3021956183,0.9255984223,0.\H,1.30219
 56183,-0.9255984223,0.\H,-1.3021956183,0.9255984223,0.\H,-1.3021956183
 ,-0.9255984223,0.\\Version=EM64L-G09RevC.01\State=2-B2G\HF=-78.5395427
 \S2=0.752808\S2-1=0.\S2A=0.750004\RMSD=1.369e-10\RMSF=6.641e-03\ZeroPo
 int=0.0441464\Thermal=0.0476603\Dipole=0.,0.,0.\DipoleDeriv=-0.3071704
 ,0.,0.,-0.0000001,-0.1388971,0.,0.,0.,-0.5886917,-0.3071704,0.,0.,0.,-
 0.1388971,0.,0.,0.,-0.5886917,-0.0964148,-0.1089889,0.,-0.1166536,-0.1
 805514,0.,0.,0.,0.0443458,-0.0964147,0.1089889,0.,0.1166537,-0.1805514
 ,0.,0.,0.,0.0443458,-0.0964149,0.1089889,0.,0.1166537,-0.1805514,0.,0.
 ,0.,0.0443457,-0.0964148,-0.1089889,0.,-0.1166537,-0.1805514,0.,0.,0.,
 0.0443458\Polar=115.2639208,-0.0000002,25.0613827,-0.0000008,0.,474.77
 92807\PG=D02H [C2"(C1.C1),SG(H4)]\NImag=1\\0.55085283,0.,0.59237450,0.
 ,0.,0.00421969,-0.28051723,0.,0.,0.55085283,0.,-0.09432869,0.,0.,0.592
 37450,0.,0.,0.00434864,0.,0.,0.00421969,-0.12661569,-0.11985520,0.,-0.
 00855211,-0.02623472,0.,0.13146938,-0.12198974,-0.25104352,0.,0.004172
 60,0.00202062,0.,0.13151504,0.26443803,0.,0.,-0.00025002,0.,0.,-0.0040
 3415,0.,0.,0.00364309,-0.12661569,0.11985519,0.,-0.00855211,0.02623472
 ,0.,0.00823020,-0.01336688,0.,0.13146938,0.12198974,-0.25104352,0.,-0.
 00417260,0.00202062,0.,0.01336688,-0.01818348,0.,-0.13151504,0.2644380
 3,0.,0.,-0.00025001,0.,0.,-0.00403415,0.,0.,-0.00218003,0.,0.,0.003643
 09,-0.00855211,0.02623472,0.,-0.12661569,0.11985520,0.,0.00109750,-0.0
 0076951,0.,-0.00562928,-0.00043849,0.,0.13146938,-0.00417260,0.0020206
 2,0.,0.12198974,-0.25104352,0.,0.00076951,0.00114726,0.,-0.00043849,0.
 00162110,0.,-0.13151504,0.26443803,0.,0.,-0.00403415,0.,0.,-0.00025002
 ,0.,0.,-0.00131034,0.,0.,0.00413145,0.,0.,0.00364309,-0.00855211,-0.02
 623472,0.,-0.12661569,-0.11985519,0.,-0.00562928,0.00043849,0.,0.00109
 750,0.00076951,0.,0.00823020,0.01336688,0.,0.13146938,0.00417260,0.002
 02062,0.,-0.12198974,-0.25104352,0.,0.00043849,0.00162110,0.,-0.000769
 51,0.00114726,0.,-0.01336688,-0.01818348,0.,0.13151504,0.26443803,0.,0
 .,-0.00403415,0.,0.,-0.00025001,0.,0.,0.00413145,0.,0.,-0.00131034,0.,
 0.,-0.00218003,0.,0.,0.00364309\\0.01950141,0.,0.,-0.01950141,0.,0.,0.
 00241682,0.00157435,0.,0.00241682,-0.00157435,0.,-0.00241682,0.0015743
 5,0.,-0.00241682,-0.00157435,0.\\\@


 FROM WHENCE IT HAPPENS, THAT THEY WHICH TRUST TO BOOKS, DO AS THEY THAT CAST UP MANY LITTLE SUMMS INTO GREATER,
 WITHOUT CONSIDERING WETHER THOSE LITTLE SUMMES WERE RIGHTLY CAST UP OR NOT...
 AND AT LAST FINDING THE ERROUR VISIBLE, AND NOT MISTRUSTING THEIR FIRST GROUNDS,
 KNOW NOT WHICH WAY TO CLEERE THEMSELVES...
 BUT SPEND TIME IN FLUTTERING OVER THEIR BOOKES....
 AS BIRDS THAT ENTERING BY THE CHIMNEY, AND FINDING THEMSELVES INCLOSED IN A CHAMBER,
 FLUTTER AT THE FALSE LIGHT OF A GLASSE WINDOW,
 FOR WANT OF WIT TO CONSIDER WHICH WAY THEY CAME IN....
           LEVIATHAN
 Job cpu time:  0 days  0 hours  0 minutes 11.2 seconds.
 File lengths (MBytes):  RWF=      5 Int=      0 D2E=      0 Chk=      1 Scr=      1
 Normal termination of Gaussian 09 at Fri Apr  9 21:02:02 2021.
 Initial command:
 /home/beto/gaussian09/g09/l1.exe /home/beto/gaussian09/scratch/Gau-101534.inp -scrdir=/home/beto/gaussian09/scratch/
 Entering Link 1 = /home/beto/gaussian09/g09/l1.exe PID=    101601.
  
 Copyright (c) 1988,1990,1992,1993,1995,1998,2003,2009,2011,
            Gaussian, Inc.  All Rights Reserved.
  
 This is part of the Gaussian(R) 09 program.  It is based on
 the Gaussian(R) 03 system (copyright 2003, Gaussian, Inc.),
 the Gaussian(R) 98 system (copyright 1998, Gaussian, Inc.),
 the Gaussian(R) 94 system (copyright 1995, Gaussian, Inc.),
 the Gaussian 92(TM) system (copyright 1992, Gaussian, Inc.),
 the Gaussian 90(TM) system (copyright 1990, Gaussian, Inc.),
 the Gaussian 88(TM) system (copyright 1988, Gaussian, Inc.),
 the Gaussian 86(TM) system (copyright 1986, Carnegie Mellon
 University), and the Gaussian 82(TM) system (copyright 1983,
 Carnegie Mellon University). Gaussian is a federally registered
 trademark of Gaussian, Inc.
  
 This software contains proprietary and confidential information,
 including trade secrets, belonging to Gaussian, Inc.
  
 This software is provided under written license and may be
 used, copied, transmitted, or stored only in accord with that
 written license.
  
 The following legend is applicable only to US Government
 contracts under FAR:
  
                    RESTRICTED RIGHTS LEGEND
  
 Use, reproduction and disclosure by the US Government is
 subject to restrictions as set forth in subparagraphs (a)
 and (c) of the Commercial Computer Software - Restricted
 Rights clause in FAR 52.227-19.
  
 Gaussian, Inc.
 340 Quinnipiac St., Bldg. 40, Wallingford CT 06492
  
  
 ---------------------------------------------------------------
 Warning -- This program may not be used in any manner that
 competes with the business of Gaussian, Inc. or will provide
 assistance to any competitor of Gaussian, Inc.  The licensee
 of this program is prohibited from giving any competitor of
 Gaussian, Inc. access to this program.  By using this program,
 the user acknowledges that Gaussian, Inc. is engaged in the
 business of creating and licensing software in the field of
 computational chemistry and represents and warrants to the
 licensee that it is not a competitor of Gaussian, Inc. and that
 it will not use this program in any manner prohibited above.
 ---------------------------------------------------------------
  

 Cite this work as:
 Gaussian 09, Revision C.01,
 M. J. Frisch, G. W. Trucks, H. B. Schlegel, G. E. Scuseria, 
 M. A. Robb, J. R. Cheeseman, G. Scalmani, V. Barone, B. Mennucci, 
 G. A. Petersson, H. Nakatsuji, M. Caricato, X. Li, H. P. Hratchian, 
 A. F. Izmaylov, J. Bloino, G. Zheng, J. L. Sonnenberg, M. Hada, 
 M. Ehara, K. Toyota, R. Fukuda, J. Hasegawa, M. Ishida, T. Nakajima, 
 Y. Honda, O. Kitao, H. Nakai, T. Vreven, J. A. Montgomery, Jr., 
 J. E. Peralta, F. Ogliaro, M. Bearpark, J. J. Heyd, E. Brothers, 
 K. N. Kudin, V. N. Staroverov, T. Keith, R. Kobayashi, J. Normand, 
 K. Raghavachari, A. Rendell, J. C. Burant, S. S. Iyengar, J. Tomasi, 
 M. Cossi, N. Rega, J. M. Millam, M. Klene, J. E. Knox, J. B. Cross, 
 V. Bakken, C. Adamo, J. Jaramillo, R. Gomperts, R. E. Stratmann, 
 O. Yazyev, A. J. Austin, R. Cammi, C. Pomelli, J. W. Ochterski, 
 R. L. Martin, K. Morokuma, V. G. Zakrzewski, G. A. Voth, 
 P. Salvador, J. J. Dannenberg, S. Dapprich, A. D. Daniels, 
 O. Farkas, J. B. Foresman, J. V. Ortiz, J. Cioslowski, 
 and D. J. Fox, Gaussian, Inc., Wallingford CT, 2010.
 
 ******************************************
 Gaussian 09:  EM64L-G09RevC.01 23-Sep-2011
                 9-Apr-2021 
 ******************************************
 %oldchk=ethylene-neutral.chk
 %chk=neutral
 Copying data from "ethylene-neutral.chk" to current chk file "neutral.chk".
 ------------------------------------------
 # B3LYP/6-31+G(d,p) Freq=SaveNM Geom=Check
 ------------------------------------------
 1/10=4,29=2,30=1,38=1/1,3;
 2/12=2,40=1/2;
 3/5=1,6=6,7=111,11=2,14=-4,16=1,25=1,30=1,71=2,74=-5/1,2,3;
 4//1;
 5/5=2,38=5,98=1/2;
 8/6=4,10=90,11=11/1;
 11/6=1,8=1,9=11,15=111,16=1/1,2,10;
 10/6=1/2;
 6/7=2,8=2,9=2,10=2,18=1,28=1/1;
 7/8=1,10=1,25=1,92=1/1,2,3,16;
 1/10=4,30=1/3;
 99//99;
 -----
 anion
 -----
 Structure from the checkpoint file:  neutral.chk
 Charge =  0 Multiplicity = 1
 Redundant internal coordinates found in file.
 C,0,0.6654785434,0.,0.
 C,0,-0.6654785434,0.,0.
 H,0,1.2395744552,0.9236043079,0.
 H,0,1.2395744552,-0.9236043079,0.
 H,0,-1.2395744552,0.9236043079,0.
 H,0,-1.2395744552,-0.9236043079,0.
 Recover connectivity data from disk.

 GradGradGradGradGradGradGradGradGradGradGradGradGradGradGradGradGradGrad
 Berny optimization.
 Initialization pass.
                           ----------------------------
                           !    Initial Parameters    !
                           ! (Angstroms and Degrees)  !
 --------------------------                            --------------------------
 ! Name  Definition              Value          Derivative Info.                !
 --------------------------------------------------------------------------------
 ! R1    R(1,2)                  1.331          calculate D2E/DX2 analytically  !
 ! R2    R(1,3)                  1.0875         calculate D2E/DX2 analytically  !
 ! R3    R(1,4)                  1.0875         calculate D2E/DX2 analytically  !
 ! R4    R(2,5)                  1.0875         calculate D2E/DX2 analytically  !
 ! R5    R(2,6)                  1.0875         calculate D2E/DX2 analytically  !
 ! A1    A(2,1,3)              121.8643         calculate D2E/DX2 analytically  !
 ! A2    A(2,1,4)              121.8643         calculate D2E/DX2 analytically  !
 ! A3    A(3,1,4)              116.2713         calculate D2E/DX2 analytically  !
 ! A4    A(1,2,5)              121.8643         calculate D2E/DX2 analytically  !
 ! A5    A(1,2,6)              121.8643         calculate D2E/DX2 analytically  !
 ! A6    A(5,2,6)              116.2713         calculate D2E/DX2 analytically  !
 ! D1    D(3,1,2,5)              0.0            calculate D2E/DX2 analytically  !
 ! D2    D(3,1,2,6)            180.0            calculate D2E/DX2 analytically  !
 ! D3    D(4,1,2,5)            180.0            calculate D2E/DX2 analytically  !
 ! D4    D(4,1,2,6)              0.0            calculate D2E/DX2 analytically  !
 --------------------------------------------------------------------------------
 Trust Radius=3.00D-01 FncErr=1.00D-07 GrdErr=1.00D-07
 Number of steps in this run=      2 maximum allowed number of steps=      2.
 GradGradGradGradGradGradGradGradGradGradGradGradGradGradGradGradGradGrad

                          Input orientation:                          
 ---------------------------------------------------------------------
 Center     Atomic      Atomic             Coordinates (Angstroms)
 Number     Number       Type             X           Y           Z
 ---------------------------------------------------------------------
      1          6           0        0.665479    0.000000    0.000000
      2          6           0       -0.665479    0.000000    0.000000
      3          1           0        1.239574    0.923604    0.000000
      4          1           0        1.239574   -0.923604    0.000000
      5          1           0       -1.239574    0.923604    0.000000
      6          1           0       -1.239574   -0.923604    0.000000
 ---------------------------------------------------------------------
                    Distance matrix (angstroms):
                    1          2          3          4          5
     1  C    0.000000
     2  C    1.330957   0.000000
     3  H    1.087488   2.117138   0.000000
     4  H    1.087488   2.117138   1.847209   0.000000
     5  H    2.117138   1.087488   2.479149   3.091660   0.000000
     6  H    2.117138   1.087488   3.091660   2.479149   1.847209
                    6
     6  H    0.000000
 Stoichiometry    C2H4
 Framework group  D2H[C2"(C.C),SG(H4)]
 Deg. of freedom     3
 Full point group                 D2H     NOp   8
 Largest Abelian subgroup         D2H     NOp   8
 Largest concise Abelian subgroup D2      NOp   4
                         Standard orientation:                         
 ---------------------------------------------------------------------
 Center     Atomic      Atomic             Coordinates (Angstroms)
 Number     Number       Type             X           Y           Z
 ---------------------------------------------------------------------
      1          6           0        0.000000    0.000000    0.665479
      2          6           0        0.000000    0.000000   -0.665479
      3          1           0        0.000000    0.923604    1.239574
      4          1           0        0.000000   -0.923604    1.239574
      5          1           0        0.000000    0.923604   -1.239574
      6          1           0        0.000000   -0.923604   -1.239574
 ---------------------------------------------------------------------
 Rotational constants (GHZ):    146.9603446     30.0410383     24.9424116
 Standard basis: 6-31+G(d,p) (6D, 7F)
 There are    14 symmetry adapted basis functions of AG  symmetry.
 There are     2 symmetry adapted basis functions of B1G symmetry.
 There are     5 symmetry adapted basis functions of B2G symmetry.
 There are     8 symmetry adapted basis functions of B3G symmetry.
 There are     2 symmetry adapted basis functions of AU  symmetry.
 There are    14 symmetry adapted basis functions of B1U symmetry.
 There are     8 symmetry adapted basis functions of B2U symmetry.
 There are     5 symmetry adapted basis functions of B3U symmetry.
 Integral buffers will be    131072 words long.
 Raffenetti 2 integral format.
 Two-electron integral symmetry is turned on.
    58 basis functions,    92 primitive gaussians,    58 cartesian basis functions
     8 alpha electrons        8 beta electrons
       nuclear repulsion energy        33.3327723065 Hartrees.
 NAtoms=    6 NActive=    6 NUniq=    2 SFac= 4.00D+00 NAtFMM=   60 NAOKFM=F Big=F
 One-electron integrals computed using PRISM.
 NBasis=    58 RedAO= T  NBF=    14     2     5     8     2    14     8     5
 NBsUse=    58 1.00D-06 NBFU=    14     2     5     8     2    14     8     5
 Harris functional with IExCor=  402 diagonalized for initial guess.
 ExpMin= 4.38D-02 ExpMax= 3.05D+03 ExpMxC= 4.57D+02 IAcc=2 IRadAn=         4 AccDes= 0.00D+00
 HarFok:  IExCor=  402 AccDes= 0.00D+00 IRadAn=         4 IDoV= 1
 ScaDFX=  1.000000  1.000000  1.000000  1.000000
 FoFCou: FMM=F IPFlag=           0 FMFlag=      100000 FMFlg1=           0
         NFxFlg=           0 DoJE=T BraDBF=F KetDBF=T FulRan=T
         Omega=  0.000000  0.000000  1.000000  0.000000  0.000000 ICntrl=     500 IOpCl=  0
         NMat0=    1 NMatS0=    1 NMatT0=    0 NMatD0=    1 NMtDS0=    0 NMtDT0=    0
         I1Cent=           4 NGrid=           0.
 Petite list used in FoFCou.
 Initial guess orbital symmetries:
       Occupied  (AG) (B1U) (AG) (B1U) (B2U) (AG) (B3G) (B3U)
       Virtual   (B2G) (AG) (B2U) (B1U) (B3U) (AG) (B3G) (B2G)
                 (B2U) (AG) (B1U) (B1U) (B1U) (B3G) (AG) (B2U)
                 (B3U) (B2G) (B1U) (AG) (B2U) (B3G) (AG) (B1U)
                 (B1U) (B3G) (B3U) (B1G) (AU) (AG) (B2U) (AG) (B3G)
                 (B1U) (B2G) (B2U) (B3U) (B1G) (B1U) (B2G) (AU)
                 (B3G) (AG) (B1U) (AG) (B2U) (B1U) (B3G) (AG) (B1U)
 The electronic state of the initial guess is 1-AG.
 Requested convergence on RMS density matrix=1.00D-08 within 128 cycles.
 Requested convergence on MAX density matrix=1.00D-06.
 Requested convergence on             energy=1.00D-06.
 No special actions if energy rises.
 Keep R1 ints in memory in canonical form, NReq=2421500.
 SCF Done:  E(RB3LYP) =  -78.5996312456     A.U. after    8 cycles
             Convg  =    0.1193D-08             -V/T =  2.0108
 Range of M.O.s used for correlation:     1    58
 NBasis=    58 NAE=     8 NBE=     8 NFC=     0 NFV=     0
 NROrb=     58 NOA=     8 NOB=     8 NVA=    50 NVB=    50

 **** Warning!!: The largest alpha MO coefficient is  0.36148811D+02

 Symmetrizing basis deriv contribution to polar:
 IMax=3 JMax=2 DiffMx= 0.00D+00
 G2DrvN: will do     7 centers at a time, making    1 passes doing MaxLOS=2.
 Calling FoFCou, ICntrl=  3107 FMM=F I1Cent=   0 AccDes= 0.00D+00.
 FoFDir/FoFCou used for L=0 through L=2.
 End of G2Drv Frequency-dependent properties file   721 does not exist.
 End of G2Drv Frequency-dependent properties file   722 does not exist.
          IDoAtm=111111
          Differentiating once with respect to electric field.
                with respect to dipole field.
          Differentiating once with respect to nuclear coordinates.
          Keep R1 ints in memory in canonical form, NReq=2287198.
          There are     9 degrees of freedom in the 1st order CPHF.  IDoFFX=4.
      9 vectors produced by pass  0 Test12= 4.44D-15 1.11D-08 XBig12= 3.66D+01 5.20D+00.
 AX will form     9 AO Fock derivatives at one time.
      9 vectors produced by pass  1 Test12= 4.44D-15 1.11D-08 XBig12= 9.36D+00 1.34D+00.
      9 vectors produced by pass  2 Test12= 4.44D-15 1.11D-08 XBig12= 2.83D-01 1.69D-01.
      9 vectors produced by pass  3 Test12= 4.44D-15 1.11D-08 XBig12= 1.16D-03 1.10D-02.
      9 vectors produced by pass  4 Test12= 4.44D-15 1.11D-08 XBig12= 6.81D-06 9.22D-04.
      7 vectors produced by pass  5 Test12= 4.44D-15 1.11D-08 XBig12= 1.07D-08 3.07D-05.
      3 vectors produced by pass  6 Test12= 4.44D-15 1.11D-08 XBig12= 1.35D-11 1.21D-06.
      1 vectors produced by pass  7 Test12= 4.44D-15 1.11D-08 XBig12= 1.66D-14 3.47D-08.
 Inverted reduced A of dimension    56 with in-core refinement.
 Isotropic polarizability for W=    0.000000       24.78 Bohr**3.
 End of Minotr Frequency-dependent properties file   721 does not exist.
 End of Minotr Frequency-dependent properties file   722 does not exist.

 **********************************************************************

            Population analysis using the SCF density.

 **********************************************************************

 Orbital symmetries:
       Occupied  (AG) (B1U) (AG) (B1U) (B2U) (AG) (B3G) (B3U)
       Virtual   (B2G) (AG) (B1U) (B2U) (B3U) (AG) (B3G) (B2G)
                 (B1U) (AG) (B2U) (B1U) (B3G) (B1U) (AG) (B2U)
                 (B3U) (B2G) (B1U) (AG) (B2U) (B3G) (AG) (B1U)
                 (B1U) (B3G) (B1G) (B3U) (AU) (AG) (B2U) (AG) (B3G)
                 (B1U) (B2G) (B2U) (B3U) (B1G) (B1U) (B2G) (AU)
                 (B3G) (AG) (B1U) (AG) (B2U) (B1U) (B3G) (AG) (B1U)
 The electronic state is 1-AG.
 Alpha  occ. eigenvalues --  -10.19545 -10.19456  -0.76570  -0.58514  -0.47271
 Alpha  occ. eigenvalues --   -0.42596  -0.35994  -0.27878
 Alpha virt. eigenvalues --   -0.00898   0.02464   0.03242   0.04664   0.06911
 Alpha virt. eigenvalues --    0.08648   0.08726   0.12855   0.15744   0.18086
 Alpha virt. eigenvalues --    0.19111   0.24841   0.34601   0.35182   0.56724
 Alpha virt. eigenvalues --    0.64793   0.67337   0.72090   0.76347   0.81838
 Alpha virt. eigenvalues --    0.88935   0.91832   0.95435   0.99518   1.16566
 Alpha virt. eigenvalues --    1.18897   1.37568   1.37991   1.52019   1.84047
 Alpha virt. eigenvalues --    1.91339   1.98323   2.03567   2.05637   2.13649
 Alpha virt. eigenvalues --    2.21780   2.36127   2.43654   2.52238   2.61289
 Alpha virt. eigenvalues --    2.66807   2.71207   2.75256   3.02730   3.17698
 Alpha virt. eigenvalues --    3.33529   3.46834   3.76872   4.23180   4.51395
          Condensed to atoms (all electrons):
              1          2          3          4          5          6
     1  C    4.844374   0.706111   0.387751   0.387751  -0.027220  -0.027220
     2  C    0.706111   4.844374  -0.027220  -0.027220   0.387751   0.387751
     3  H    0.387751  -0.027220   0.544274  -0.036684  -0.008301   0.004408
     4  H    0.387751  -0.027220  -0.036684   0.544274   0.004408  -0.008301
     5  H   -0.027220   0.387751  -0.008301   0.004408   0.544274  -0.036684
     6  H   -0.027220   0.387751   0.004408  -0.008301  -0.036684   0.544274
 Mulliken atomic charges:
              1
     1  C   -0.271546
     2  C   -0.271546
     3  H    0.135773
     4  H    0.135773
     5  H    0.135773
     6  H    0.135773
 Sum of Mulliken atomic charges =   0.00000
 Mulliken charges with hydrogens summed into heavy atoms:
              1
     1  C    0.000000
     2  C    0.000000
 Sum of Mulliken charges with hydrogens summed into heavy atoms =   0.00000
 APT atomic charges:
              1
     1  C   -0.068591
     2  C   -0.068591
     3  H    0.034296
     4  H    0.034296
     5  H    0.034296
     6  H    0.034296
 Sum of APT charges=   0.00000
 APT Atomic charges with hydrogens summed into heavy atoms:
              1
     1  C    0.000000
     2  C    0.000000
     3  H    0.000000
     4  H    0.000000
     5  H    0.000000
     6  H    0.000000
 Sum of APT charges=   0.00000
 Electronic spatial extent (au):  <R**2>=             83.4705
 Charge=              0.0000 electrons
 Dipole moment (field-independent basis, Debye):
    X=              0.0000    Y=              0.0000    Z=              0.0000  Tot=              0.0000
 Quadrupole moment (field-independent basis, Debye-Ang):
   XX=            -15.9789   YY=            -12.4600   ZZ=            -12.3951
   XY=              0.0000   XZ=              0.0000   YZ=              0.0000
 Traceless Quadrupole moment (field-independent basis, Debye-Ang):
   XX=             -2.3676   YY=              1.1513   ZZ=              1.2163
   XY=              0.0000   XZ=              0.0000   YZ=              0.0000
 Octapole moment (field-independent basis, Debye-Ang**2):
  XXX=              0.0000  YYY=              0.0000  ZZZ=              0.0000  XYY=              0.0000
  XXY=              0.0000  XXZ=              0.0000  XZZ=              0.0000  YZZ=              0.0000
  YYZ=              0.0000  XYZ=              0.0000
 Hexadecapole moment (field-independent basis, Debye-Ang**3):
 XXXX=            -22.2271 YYYY=            -28.5180 ZZZZ=            -70.8266 XXXY=              0.0000
 XXXZ=              0.0000 YYYX=              0.0000 YYYZ=              0.0000 ZZZX=              0.0000
 ZZZY=              0.0000 XXYY=             -9.0880 XXZZ=            -16.5506 YYZZ=            -14.1590
 XXYZ=              0.0000 YYXZ=              0.0000 ZZXY=              0.0000
 N-N= 3.333277230653D+01 E-N=-2.479132137485D+02  KE= 7.775651651503D+01
 Symmetry AG   KE= 3.740226499234D+01
 Symmetry B1G  KE= 6.808555973417D-34
 Symmetry B2G  KE= 3.678829080285D-33
 Symmetry B3G  KE= 2.096397990264D+00
 Symmetry AU   KE= 7.764114247145D-34
 Symmetry B1U  KE= 3.434840171285D+01
 Symmetry B2U  KE= 1.877399586844D+00
 Symmetry B3U  KE= 2.032052232737D+00
  Exact polarizability:  18.050   0.000  21.211   0.000   0.000  35.068
 Approx polarizability:  21.406   0.000  26.139   0.000   0.000  51.758
 Calling FoFJK, ICntrl=    100127 FMM=F ISym2X=1 I1Cent= 0 IOpClX= 0 NMat=1 NMatS=1 NMatT=0.
 Full mass-weighted force constant matrix:
 Low frequencies ---  -55.1253  -45.5227  -23.4278    0.0007    0.0009    0.0009
 Low frequencies ---  835.4681  971.0171  978.4230
 Harmonic frequencies (cm**-1), IR intensities (KM/Mole), Raman scattering
 activities (A**4/AMU), depolarization ratios for plane and unpolarized
 incident light, reduced masses (AMU), force constants (mDyne/A),
 and normal coordinates:
                     1                      2                      3
                    B2U                    B2G                    B3U
 Frequencies --   835.4681               970.9994               978.4230
 Red. masses --     1.0428                 1.5207                 1.1607
 Frc consts  --     0.4288                 0.8448                 0.6547
 IR Inten    --     0.9778                 0.0000               119.4873
  Atom  AN      X      Y      Z        X      Y      Z        X      Y      Z
     1   6     0.00  -0.04   0.00     0.15   0.00   0.00     0.08   0.00   0.00
     2   6     0.00  -0.04   0.00    -0.15   0.00   0.00     0.08   0.00   0.00
     3   1     0.00   0.24  -0.44    -0.49   0.00   0.00    -0.50   0.00   0.00
     4   1     0.00   0.24   0.44    -0.49   0.00   0.00    -0.50   0.00   0.00
     5   1     0.00   0.24   0.44     0.49   0.00   0.00    -0.50   0.00   0.00
     6   1     0.00   0.24  -0.44     0.49   0.00   0.00    -0.50   0.00   0.00
                     4                      5                      6
                    AU                     B3G                    AG
 Frequencies --  1057.2152              1237.3712              1385.2832
 Red. masses --     1.0078                 1.5266                 1.2154
 Frc consts  --     0.6637                 1.3771                 1.3741
 IR Inten    --     0.0000                 0.0000                 0.0000
  Atom  AN      X      Y      Z        X      Y      Z        X      Y      Z
     1   6     0.00   0.00   0.00     0.00   0.15   0.00     0.00   0.00   0.10
     2   6     0.00   0.00   0.00     0.00  -0.15   0.00     0.00   0.00  -0.10
     3   1     0.50   0.00   0.00     0.00  -0.14   0.47     0.00  -0.20   0.45
     4   1    -0.50   0.00   0.00     0.00  -0.14  -0.47     0.00   0.20   0.45
     5   1    -0.50   0.00   0.00     0.00   0.14   0.47     0.00  -0.20  -0.45
     6   1     0.50   0.00   0.00     0.00   0.14  -0.47     0.00   0.20  -0.45
                     7                      8                      9
                    B1U                    AG                     B1U
 Frequencies --  1478.7283              1707.0776              3138.4190
 Red. masses --     1.1118                 3.1808                 1.0478
 Frc consts  --     1.4324                 5.4612                 6.0809
 IR Inten    --     7.7338                 0.0000                18.0458
  Atom  AN      X      Y      Z        X      Y      Z        X      Y      Z
     1   6     0.00   0.00   0.07     0.00   0.00   0.31     0.00   0.00   0.04
     2   6     0.00   0.00   0.07     0.00   0.00  -0.31     0.00   0.00   0.04
     3   1     0.00   0.28  -0.41     0.00   0.38  -0.23     0.00  -0.43  -0.25
     4   1     0.00  -0.28  -0.41     0.00  -0.38  -0.23     0.00   0.43  -0.25
     5   1     0.00  -0.28  -0.41     0.00   0.38   0.23     0.00   0.43  -0.25
     6   1     0.00   0.28  -0.41     0.00  -0.38   0.23     0.00  -0.43  -0.25
                    10                     11                     12
                    AG                     B3G                    B2U
 Frequencies --  3153.5402              3211.3088              3238.4704
 Red. masses --     1.0746                 1.1145                 1.1176
 Frc consts  --     6.2962                 6.7714                 6.9059
 IR Inten    --     0.0000                 0.0000                28.0021
  Atom  AN      X      Y      Z        X      Y      Z        X      Y      Z
     1   6     0.00   0.00  -0.06     0.00  -0.07   0.00     0.00   0.07   0.00
     2   6     0.00   0.00   0.06     0.00   0.07   0.00     0.00   0.07   0.00
     3   1     0.00   0.43   0.26     0.00   0.42   0.27     0.00  -0.42  -0.27
     4   1     0.00  -0.43   0.26     0.00   0.42  -0.27     0.00  -0.42   0.27
     5   1     0.00   0.43  -0.26     0.00  -0.42   0.27     0.00  -0.42   0.27
     6   1     0.00  -0.43  -0.26     0.00  -0.42  -0.27     0.00  -0.42  -0.27

 -------------------
 - Thermochemistry -
 -------------------
 Temperature   298.150 Kelvin.  Pressure   1.00000 Atm.
 Atom     1 has atomic number  6 and mass  12.00000
 Atom     2 has atomic number  6 and mass  12.00000
 Atom     3 has atomic number  1 and mass   1.00783
 Atom     4 has atomic number  1 and mass   1.00783
 Atom     5 has atomic number  1 and mass   1.00783
 Atom     6 has atomic number  1 and mass   1.00783
 Molecular mass:    28.03130 amu.
 Principal axes and moments of inertia in atomic units:
                           1         2         3
     Eigenvalues --    12.28046  60.07586  72.35632
           X            0.00000   0.00000   1.00000
           Y            0.00000   1.00000   0.00000
           Z            1.00000   0.00000   0.00000
 This molecule is an asymmetric top.
 Rotational symmetry number  4.
 Rotational temperatures (Kelvin)      7.05298     1.44174     1.19705
 Rotational constants (GHZ):         146.96034    30.04104    24.94241
 Zero-point vibrational energy     133935.7 (Joules/Mol)
                                   32.01141 (Kcal/Mol)
 Vibrational temperatures:   1202.05  1397.05  1407.73  1521.09  1780.30
          (Kelvin)           1993.11  2127.56  2456.10  4515.48  4537.24
                             4620.35  4659.43
 
 Zero-point correction=                           0.051013 (Hartree/Particle)
 Thermal correction to Energy=                    0.054055
 Thermal correction to Enthalpy=                  0.054999
 Thermal correction to Gibbs Free Energy=         0.030138
 Sum of electronic and zero-point Energies=            -78.548618
 Sum of electronic and thermal Energies=               -78.545576
 Sum of electronic and thermal Enthalpies=             -78.544632
 Sum of electronic and thermal Free Energies=          -78.569493
 
                     E (Thermal)             CV                S
                      KCal/Mol        Cal/Mol-Kelvin    Cal/Mol-Kelvin
 Total                   33.920              8.096             52.325
 Electronic               0.000              0.000              0.000
 Translational            0.889              2.981             35.927
 Rotational               0.889              2.981             15.864
 Vibrational             32.143              2.134              0.534
                       Q            Log10(Q)             Ln(Q)
 Total Bot       0.137200D-13        -13.862645        -31.919919
 Total V=0       0.399807D+10          9.601851         22.109078
 Vib (Bot)       0.359710D-23        -23.444047        -53.981913
 Vib (V=0)       0.104821D+01          0.020449          0.047085
 Electronic      0.100000D+01          0.000000          0.000000
 Translational   0.583338D+07          6.765920         15.579107
 Rotational      0.653856D+03          2.815482          6.482887
 ***** Axes restored to original set *****
 -------------------------------------------------------------------
 Center     Atomic                   Forces (Hartrees/Bohr)
 Number     Number              X              Y              Z
 -------------------------------------------------------------------
      1        6           0.004374779    0.000000000    0.000000000
      2        6          -0.004374779    0.000000000    0.000000000
      3        1          -0.000409117   -0.000094620    0.000000000
      4        1          -0.000409117    0.000094620    0.000000000
      5        1           0.000409117   -0.000094620    0.000000000
      6        1           0.000409117    0.000094620    0.000000000
 -------------------------------------------------------------------
 Cartesian Forces:  Max     0.004374779 RMS     0.001471634

 GradGradGradGradGradGradGradGradGradGradGradGradGradGradGradGradGradGrad
 Berny optimization.
 Internal  Forces:  Max     0.003556545 RMS     0.000948638
 Search for a local minimum.
 Step number   1 out of a maximum of    2
 All quantities printed in internal units (Hartrees-Bohrs-Radians)
 Second derivative matrix not updated -- analytic derivatives used.
 The second derivative matrix:
                          R1        R2        R3        R4        R5
           R1           0.64379
           R2           0.00660   0.35805
           R3           0.00660   0.00214   0.35805
           R4           0.00660   0.00073  -0.00054   0.35805
           R5           0.00660  -0.00054   0.00073   0.00214   0.35805
           A1           0.01072   0.00473  -0.01157  -0.00339   0.00441
           A2           0.01072  -0.01157   0.00473   0.00441  -0.00339
           A3          -0.02144   0.00684   0.00684  -0.00101  -0.00101
           A4           0.01072  -0.00339   0.00441   0.00473  -0.01157
           A5           0.01072   0.00441  -0.00339  -0.01157   0.00473
           A6          -0.02144  -0.00101  -0.00101   0.00684   0.00684
           D1           0.00000   0.00000   0.00000   0.00000   0.00000
           D2           0.00000   0.00000   0.00000   0.00000   0.00000
           D3           0.00000   0.00000   0.00000   0.00000   0.00000
           D4           0.00000   0.00000   0.00000   0.00000   0.00000
                          A1        A2        A3        A4        A5
           A1           0.08135
           A2          -0.04485   0.08135
           A3          -0.03650  -0.03650   0.07301
           A4          -0.00869   0.01012  -0.00143   0.08135
           A5           0.01012  -0.00869  -0.00143  -0.04485   0.08135
           A6          -0.00143  -0.00143   0.00287  -0.03650  -0.03650
           D1           0.00000   0.00000   0.00000   0.00000   0.00000
           D2           0.00000   0.00000   0.00000   0.00000   0.00000
           D3           0.00000   0.00000   0.00000   0.00000   0.00000
           D4           0.00000   0.00000   0.00000   0.00000   0.00000
                          A6        D1        D2        D3        D4
           A6           0.07301
           D1           0.00000   0.02535
           D2           0.00000   0.00811   0.03171
           D3           0.00000   0.00811  -0.01550   0.03171
           D4           0.00000  -0.00913   0.00811   0.00811   0.02535
 ITU=  0
     Eigenvalues ---    0.03242   0.03448   0.04720   0.10449   0.10709
     Eigenvalues ---    0.11074   0.14227   0.35738   0.35747   0.36033
     Eigenvalues ---    0.36072   0.64692
 Angle between quadratic step and forces=  42.21 degrees.
 Linear search not attempted -- first point.
 Iteration  1 RMS(Cart)=  0.00168098 RMS(Int)=  0.00000327
 Iteration  2 RMS(Cart)=  0.00000329 RMS(Int)=  0.00000000
 Iteration  3 RMS(Cart)=  0.00000000 RMS(Int)=  0.00000000
 ClnCor:  largest displacement from symmetrization is 6.88D-11 for atom     4.
 Variable       Old X    -DE/DX   Delta X   Delta X   Delta X     New X
                                 (Linear)    (Quad)   (Total)
    R1        2.51514   0.00356   0.00000   0.00605   0.00605   2.52119
    R2        2.05506  -0.00030   0.00000  -0.00105  -0.00105   2.05401
    R3        2.05506  -0.00030   0.00000  -0.00105  -0.00105   2.05401
    R4        2.05506  -0.00030   0.00000  -0.00105  -0.00105   2.05401
    R5        2.05506  -0.00030   0.00000  -0.00105  -0.00105   2.05401
    A1        2.12693  -0.00020   0.00000  -0.00241  -0.00241   2.12452
    A2        2.12693  -0.00020   0.00000  -0.00241  -0.00241   2.12452
    A3        2.02932   0.00041   0.00000   0.00483   0.00483   2.03415
    A4        2.12693  -0.00020   0.00000  -0.00241  -0.00241   2.12452
    A5        2.12693  -0.00020   0.00000  -0.00241  -0.00241   2.12452
    A6        2.02932   0.00041   0.00000   0.00483   0.00483   2.03415
    D1        0.00000   0.00000   0.00000   0.00000   0.00000   0.00000
    D2        3.14159   0.00000   0.00000   0.00000   0.00000   3.14159
    D3        3.14159   0.00000   0.00000   0.00000   0.00000   3.14159
    D4        0.00000   0.00000   0.00000   0.00000   0.00000   0.00000
         Item               Value     Threshold  Converged?
 Maximum Force            0.003557     0.000450     NO 
 RMS     Force            0.000949     0.000300     NO 
 Maximum Displacement     0.003025     0.001800     NO 
 RMS     Displacement     0.001680     0.001200     NO 
 Predicted change in Energy=-1.433311D-05
 GradGradGradGradGradGradGradGradGradGradGradGradGradGradGradGradGradGrad

 1\1\GINC-BUFALO\Freq\RB3LYP\6-31+G(d,p)\C2H4\BETO\09-Apr-2021\0\\# B3L
 YP/6-31+G(d,p) Freq=SaveNM Geom=Check\\anion\\0,1\C,0.6654785434,0.,0.
 \C,-0.6654785434,0.,0.\H,1.2395744552,0.9236043079,0.\H,1.2395744552,-
 0.9236043079,0.\H,-1.2395744552,0.9236043079,0.\H,-1.2395744552,-0.923
 6043079,0.\\Version=EM64L-G09RevC.01\State=1-AG\HF=-78.5996312\RMSD=1.
 193e-09\RMSF=1.472e-03\ZeroPoint=0.0510134\Thermal=0.0540552\Dipole=0.
 ,0.,0.\DipoleDeriv=-0.0016812,0.,0.,0.,0.1211154,0.,0.,0.,-0.3252084,-
 0.0016812,0.,0.,0.,0.1211154,0.,0.,0.,-0.3252084,0.0008406,-0.0566267,
 0.,-0.0816203,-0.0605577,0.,0.,0.,0.1626042,0.0008406,0.0566267,0.,0.0
 816203,-0.0605577,0.,0.,0.,0.1626042,0.0008406,0.0566267,0.,0.0816202,
 -0.0605577,0.,0.,0.,0.1626042,0.0008406,-0.0566267,0.,-0.0816202,-0.06
 05577,0.,0.,0.,0.1626042\Polar=35.0681773,0.,21.2114596,0.,0.,18.05004
 98\PG=D02H [C2"(C1.C1),SG(H4)]\NImag=0\\0.87171998,0.,0.63316438,0.,0.
 ,0.10840848,-0.58385377,0.,0.,0.87171998,0.,-0.11080216,0.,0.,0.633164
 38,0.,0.,-0.04588719,0.,0.,0.10840848,-0.13074055,-0.12067380,0.,-0.01
 319255,-0.02977121,0.,0.13767734,-0.12472614,-0.26477320,0.,0.00203262
 ,0.00359209,0.,0.13581037,0.27436254,0.,0.,-0.03678717,0.,0.,0.0055265
 2,0.,0.,0.02418873,-0.13074055,0.12067380,0.,-0.01319255,0.02977121,0.
 ,0.00983909,-0.01374395,0.,0.13767734,0.12472614,-0.26477320,0.,-0.002
 03262,0.00359209,0.,0.01374395,-0.01625218,0.,-0.13581037,0.27436254,0
 .,0.,-0.03678717,0.,0.,0.00552652,0.,0.,0.00288479,0.,0.,0.02418873,-0
 .01319255,0.02977121,0.,-0.13074055,0.12067380,0.,0.00134419,-0.000131
 79,0.,-0.00492751,-0.00075889,0.,0.13767734,-0.00203262,0.00359209,0.,
 0.12472614,-0.26477320,0.,0.00013179,0.00136729,0.,-0.00075889,0.00170
 346,0.,-0.13581037,0.27436254,0.,0.,0.00552652,0.,0.,-0.03678717,0.,0.
 ,-0.00856888,0.,0.,0.01275600,0.,0.,0.02418873,-0.01319255,-0.02977121
 ,0.,-0.13074055,-0.12067380,0.,-0.00492751,0.00075889,0.,0.00134419,0.
 00013179,0.,0.00983909,0.01374395,0.,0.13767734,0.00203262,0.00359209,
 0.,-0.12472614,-0.26477320,0.,0.00075889,0.00170346,0.,-0.00013179,0.0
 0136729,0.,-0.01374395,-0.01625218,0.,0.13581037,0.27436254,0.,0.,0.00
 552652,0.,0.,-0.03678717,0.,0.,0.01275600,0.,0.,-0.00856888,0.,0.,0.00
 288479,0.,0.,0.02418873\\-0.00437478,0.,0.,0.00437478,0.,0.,0.00040912
 ,0.00009462,0.,0.00040912,-0.00009462,0.,-0.00040912,0.00009462,0.,-0.
 00040912,-0.00009462,0.\\\@


 A SCIENTIST IS SOMEONE WHOSE CURIOSITY SURVIVES
 EDUCATION'S ASSAULTS ON IT.
                          - SIR HERMANN BONDI
 Job cpu time:  0 days  0 hours  0 minutes  4.2 seconds.
 File lengths (MBytes):  RWF=      5 Int=      0 D2E=      0 Chk=      1 Scr=      1
 Normal termination of Gaussian 09 at Fri Apr  9 21:02:06 2021.
 Initial command:
 /home/beto/gaussian09/g09/l1.exe /home/beto/gaussian09/scratch/Gau-101534.inp -scrdir=/home/beto/gaussian09/scratch/
 Entering Link 1 = /home/beto/gaussian09/g09/l1.exe PID=    101605.
  
 Copyright (c) 1988,1990,1992,1993,1995,1998,2003,2009,2011,
            Gaussian, Inc.  All Rights Reserved.
  
 This is part of the Gaussian(R) 09 program.  It is based on
 the Gaussian(R) 03 system (copyright 2003, Gaussian, Inc.),
 the Gaussian(R) 98 system (copyright 1998, Gaussian, Inc.),
 the Gaussian(R) 94 system (copyright 1995, Gaussian, Inc.),
 the Gaussian 92(TM) system (copyright 1992, Gaussian, Inc.),
 the Gaussian 90(TM) system (copyright 1990, Gaussian, Inc.),
 the Gaussian 88(TM) system (copyright 1988, Gaussian, Inc.),
 the Gaussian 86(TM) system (copyright 1986, Carnegie Mellon
 University), and the Gaussian 82(TM) system (copyright 1983,
 Carnegie Mellon University). Gaussian is a federally registered
 trademark of Gaussian, Inc.
  
 This software contains proprietary and confidential information,
 including trade secrets, belonging to Gaussian, Inc.
  
 This software is provided under written license and may be
 used, copied, transmitted, or stored only in accord with that
 written license.
  
 The following legend is applicable only to US Government
 contracts under FAR:
  
                    RESTRICTED RIGHTS LEGEND
  
 Use, reproduction and disclosure by the US Government is
 subject to restrictions as set forth in subparagraphs (a)
 and (c) of the Commercial Computer Software - Restricted
 Rights clause in FAR 52.227-19.
  
 Gaussian, Inc.
 340 Quinnipiac St., Bldg. 40, Wallingford CT 06492
  
  
 ---------------------------------------------------------------
 Warning -- This program may not be used in any manner that
 competes with the business of Gaussian, Inc. or will provide
 assistance to any competitor of Gaussian, Inc.  The licensee
 of this program is prohibited from giving any competitor of
 Gaussian, Inc. access to this program.  By using this program,
 the user acknowledges that Gaussian, Inc. is engaged in the
 business of creating and licensing software in the field of
 computational chemistry and represents and warrants to the
 licensee that it is not a competitor of Gaussian, Inc. and that
 it will not use this program in any manner prohibited above.
[...]
       21723.5394        0.000000D+00
       21731.5394        0.000000D+00
       21739.5394                 NaN
       21747.5394        0.000000D+00
       21755.5394        0.000000D+00
       21763.5394        0.000000D+00
       21771.5394        0.000000D+00
       21779.5394        0.000000D+00
       21787.5394        0.000000D+00
       21795.5394        0.000000D+00
       21803.5394        0.000000D+00
       21811.5394        0.000000D+00
       21819.5394        0.000000D+00
       21827.5394        0.000000D+00
       21835.5394        0.000000D+00
       21843.5394        0.000000D+00
       21851.5394        0.000000D+00
       21859.5394        0.000000D+00
       21867.5394        0.000000D+00
       21875.5394        0.000000D+00
       21883.5394        0.000000D+00
       21891.5394        0.000000D+00
       21899.5394        0.000000D+00
       21907.5394        0.000000D+00
       21915.5394        0.000000D+00
       21923.5394        0.000000D+00
       21931.5394        0.000000D+00
       21939.5394        0.000000D+00
       21947.5394        0.000000D+00
       21955.5394        0.000000D+00
       21963.5394        0.000000D+00
       21971.5394        0.000000D+00
       21979.5394        0.000000D+00
       21987.5394        0.000000D+00
       21995.5394        0.000000D+00
       22003.5394        0.000000D+00
       22011.5394        0.000000D+00
       22019.5394        0.000000D+00
       22027.5394        0.000000D+00
       22035.5394        0.000000D+00
       22043.5394        0.000000D+00
       22051.5394        0.000000D+00
       22059.5394        0.000000D+00
       22067.5394        0.000000D+00
       22075.5394        0.000000D+00
       22083.5394        0.000000D+00
       22091.5394        0.000000D+00
       22099.5394        0.000000D+00
       22107.5394        0.000000D+00
       22115.5394        0.000000D+00
       22123.5394        0.000000D+00
       22131.5394        0.000000D+00
       22139.5394        0.000000D+00
       22147.5394        0.000000D+00
       22155.5394        0.000000D+00
       22163.5394        0.000000D+00
       22171.5394        0.000000D+00
       22179.5394        0.000000D+00
       22187.5394        0.000000D+00
       22195.5394        0.000000D+00
       22203.5394        0.000000D+00
       22211.5394                 NaN
       22219.5394                 NaN
       22227.5394        0.000000D+00
       22235.5394        0.000000D+00
       22243.5394                 NaN
       22251.5394        0.000000D+00
       22259.5394        0.000000D+00
       22267.5394        0.000000D+00
       22275.5394        0.000000D+00
       22283.5394        0.000000D+00
       22291.5394        0.000000D+00
       22299.5394        0.000000D+00
       22307.5394        0.000000D+00
       22315.5394        0.000000D+00
       22323.5394        0.000000D+00
       22331.5394                 NaN
       22339.5394        0.000000D+00
       22347.5394        0.000000D+00
       22355.5394        0.000000D+00
       22363.5394        0.000000D+00
       22371.5394        0.000000D+00
       22379.5394        0.000000D+00
       22387.5394        0.000000D+00
       22395.5394        0.000000D+00
       22403.5394        0.000000D+00
       22411.5394        0.000000D+00
       22419.5394        0.000000D+00
       22427.5394        0.000000D+00
       22435.5394        0.000000D+00
       22443.5394        0.000000D+00
       22451.5394        0.000000D+00
       22459.5394        0.000000D+00
       22467.5394        0.000000D+00
       22475.5394        0.000000D+00
       22483.5394        0.000000D+00
       22491.5394        0.000000D+00
       22499.5394        0.000000D+00
       22507.5394        0.000000D+00
       22515.5394        0.000000D+00
       22523.5394        0.000000D+00
       22531.5394        0.000000D+00
       22539.5394        0.000000D+00
       22547.5394        0.000000D+00
       22555.5394        0.000000D+00
       22563.5394        0.000000D+00
       22571.5394        0.000000D+00
       22579.5394                 NaN
       22587.5394        0.000000D+00
       22595.5394        0.000000D+00
       22603.5394        0.000000D+00
       22611.5394        0.000000D+00
       22619.5394        0.000000D+00
       22627.5394        0.000000D+00
       22635.5394        0.000000D+00
       22643.5394                 NaN
       22651.5394        0.000000D+00
       22659.5394        0.000000D+00
       22667.5394        0.000000D+00
       22675.5394        0.000000D+00
       22683.5394        0.000000D+00
       22691.5394        0.000000D+00
       22699.5394        0.000000D+00
       22707.5394        0.000000D+00
       22715.5394        0.000000D+00
       22723.5394        0.000000D+00
       22731.5394        0.000000D+00
       22739.5394        0.000000D+00
       22747.5394        0.000000D+00
       22755.5394        0.000000D+00
       22763.5394        0.000000D+00
       22771.5394        0.000000D+00
       22779.5394        0.000000D+00
       22787.5394        0.000000D+00
       22795.5394        0.000000D+00
       22803.5394        0.000000D+00
       22811.5394        0.000000D+00
       22819.5394        0.000000D+00
 ------------------------------------------------------------

 Quartic Centrifugal Distortion Constants Tau Prime
                       cm -1                    MHz
 TauP aaaa        -0.1358144446D-02        -0.4071614617D+02
 TauP bbaa        -0.6587340636D-04        -0.1974835041D+01
 TauP bbbb        -0.1214710894D-05        -0.3641611646D-01
 TauP ccaa        -0.3672371597D-04        -0.1100949308D+01
 TauP ccbb        -0.1052711693D-05        -0.3155950260D-01
 TauP cccc        -0.1599888677D-05        -0.4796345589D-01

 I r Representation for Asymmetric Top: Iz < Ix < Iy
 Asymmetric Top Reduction
 Asymmetric Top Parameter Kappa :       -0.9363356653
 Asymmetric Top Parameter Sigma :       61.8295264557

 Constants in the Asymmetrically reduced Hamiltonian 
                        cm-1                    MHz
  DELTA J  :    0.3518249463D-06         0.1054744654D-01
  DELTA K  :    0.3143273028D-03         0.9423295473D+01
  DELTA JK :    0.2485698367D-04         0.7451936232D+00
  delta J  :   -0.2407361143D-07        -0.7217087143D-03
  delta K  :    0.6408286640D-05         0.1921156003D+00

 Effective Rotational Constants
 (Include Terms due to Quartic Centrifugal Distortion Constants)
           Be in cm-1              B(A) in cm-1             B(A) IN  MHz
 a          4.880970100             4.880969922             146327.79705
 b          0.870841770             0.870847340              26107.34645
 c          0.738993684             0.738988291              22154.31163

 Nielsen Centrifugal Distortion Constants
                cm-1                     MHz
 DJ     0.3296631906D-06         0.9883053821D-02
 DJK    0.2498995420D-04         0.7491799795D+00
 DK     0.3142164940D-03         0.9419973509D+01
 dJ    -0.2407361143D-07        -0.7217087143D-03
 R5    -0.1833892456D-05        -0.5497871270D-01
 R6    -0.1108087788D-07        -0.3321963617D-03

 Constants in the Symmetrically Reduced Hamiltonian
                    cm-1                      MHz
  D J  :    0.3000027264D-06         0.8993855475D-02
  D JK :    0.2516791699D-04         0.7545151696D+00
  D K  :    0.3140681917D-03         0.9415527517D+01
  d 1  :    0.2407361143D-07         0.7217087143D-03
  d 2  :   -0.2591110998D-07        -0.7767955351D-03


 Effective Rotational Constants
 (Include Terms due to Quartic Centrifugal Distortion Constants)
           Be in cm-1              B(S) in cm-1             B(S) IN  MHz
 a          4.880970100             4.880970181             146327.80481
 b          0.870841770             0.870834419              26106.95911
 c          0.738993684             0.739001004              22154.69275

 Wilson Centrifugal Distortion Constants
                cm-1                     MHz
 DJ     0.3036777235D-06         0.9104029116D-02
 DJK    0.3232934774D-04         0.9692094623D+00
 DK     0.3069030860D-03         0.9200723051D+01

 Nielsen Centrifugal Distortion Constants
                cm-1                     MHz
 DJ     0.3296631906D-06         0.9883053821D-02
 DJK    0.2498995420D-04         0.7491799795D+00
 DK     0.3142164940D-03         0.9419973509D+01
 dJ    -0.2407361143D-07        -0.7217087143D-03
 R5    -0.1833892456D-05        -0.5497871270D-01
 R6    -0.1108087788D-07        -0.3321963617D-03

 Test of Quartic Planarity Relationships
 Asymmetric Reduction I r
 4C*DELJ - (B-C)*DELJK - 2*(2A+B+C)*SDELJ+ 2*(B-C)*SDELK = 0
 VALUE =    -0.4658681210D-20
 Symmetric Reduction I r
 4C*DJ - (B-C)*DJK + 2*(2A+B+C)*D1 - 4*(4A+B-3C)*D2 = 0
 Value =    -0.4658681210D-20

 Alpha Matrix in cm-1
 Axis Mode    Inertia        Coriol.        Anharm.        Total
  x    1   -0.21992D-19    0.00000D+00    0.00000D+00   -0.21992D-19
  x    2   -0.21740D-19   -0.13997D-02    0.00000D+00   -0.13997D-02
  x    3   -0.37840D-24   -0.15052D-02    0.00000D+00   -0.15052D-02
  x    4   -0.55256D-03   -0.98123D-03    0.00000D+00   -0.15338D-02
  x    5   -0.22689D-23   -0.11464D-02    0.00000D+00   -0.11464D-02
  x    6   -0.52111D-04    0.15360D-02    0.00000D+00    0.14838D-02
  x    7   -0.22125D-25    0.15411D-02    0.00000D+00    0.15411D-02
  x    8   -0.92180D-26   -0.37785D-02    0.00000D+00   -0.37785D-02
  x    9   -0.83807D-03    0.50840D-02    0.00000D+00    0.42460D-02
  x   10   -0.47544D-19    0.17819D-02    0.00000D+00    0.17819D-02
  x   11   -0.11372D-18    0.00000D+00    0.00000D+00   -0.11372D-18
  x   12    0.10014D-32    0.00000D+00    0.00000D+00    0.10014D-32
  y    1   -0.34202D-19    0.55638D-02    0.00000D+00    0.55638D-02
  y    2   -0.11803D-20   -0.38536D-03    0.00000D+00   -0.38536D-03
  y    3   -0.15264D-02    0.00000D+00    0.00000D+00   -0.15264D-02
  y    4   -0.52484D-04   -0.41536D-03    0.00000D+00   -0.46785D-03
  y    5   -0.15053D-19   -0.42009D-03    0.00000D+00   -0.42009D-03
  y    6   -0.13470D-04   -0.20693D-02    0.00000D+00   -0.20827D-02
  y    7   -0.73863D-20   -0.24913D-02    0.00000D+00   -0.24913D-02
  y    8   -0.86536D-03    0.00000D+00    0.00000D+00   -0.86536D-03
  y    9   -0.14434D-02   -0.51912D-04    0.00000D+00   -0.14953D-02
  y   10   -0.76508D-19   -0.96845D-02    0.00000D+00   -0.96845D-02
  y   11   -0.17903D-18    0.10606D-01    0.00000D+00    0.10606D-01
  y   12    0.37535D-23    0.50737D-02    0.00000D+00    0.50737D-02
  z    1   -0.40032D-20    0.17787D+00    0.00000D+00    0.17787D+00
  z    2   -0.41924D-17   -0.33998D-01    0.00000D+00   -0.33998D-01
  z    3   -0.85553D-02   -0.31128D-01    0.00000D+00   -0.39683D-01
  z    4   -0.91739D-01    0.00000D+00    0.00000D+00   -0.91739D-01
  z    5   -0.84756D-19   -0.34848D-01    0.00000D+00   -0.34848D-01
  z    6   -0.29322D-01    0.00000D+00    0.00000D+00   -0.29322D-01
  z    7   -0.41416D-19   -0.34024D-01    0.00000D+00   -0.34024D-01
  z    8   -0.48502D-02   -0.35484D-01    0.00000D+00   -0.40335D-01
  z    9   -0.16187D-03    0.00000D+00    0.00000D+00   -0.16187D-03
  z   10   -0.95634D-21   -0.64395D-01    0.00000D+00   -0.64395D-01
  z   11   -0.12057D-19    0.11217D+00    0.00000D+00    0.11217D+00
  z   12    0.21038D-22    0.17381D+00    0.00000D+00    0.17381D+00
 ***** Axes restored to original set *****
 -------------------------------------------------------------------
 Center     Atomic                   Forces (Hartrees/Bohr)
 Number     Number              X              Y              Z
 -------------------------------------------------------------------
      1        6          -0.019501410    0.000000000    0.000000000
      2        6           0.019501410    0.000000000    0.000000000
      3        1          -0.002416819   -0.001574354    0.000000000
      4        1          -0.002416819    0.001574354    0.000000000
      5        1           0.002416819   -0.001574354    0.000000000
      6        1           0.002416819    0.001574354    0.000000000
 -------------------------------------------------------------------
 Cartesian Forces:  Max     0.019501410 RMS     0.006641153

 GradGradGradGradGradGradGradGradGradGradGradGradGradGradGradGradGradGrad
 Berny optimization.
 Internal  Forces:  Max     0.024335047 RMS     0.006470148
 Search for a local minimum.
 Step number   1 out of a maximum of    2
 All quantities printed in internal units (Hartrees-Bohrs-Radians)
 Second derivative matrix not updated -- analytic derivatives used.
 The second derivative matrix:
                          R1        R2        R3        R4        R5
           R1           0.32379
           R2           0.00369   0.34530
           R3           0.00369   0.00335   0.34530
           R4           0.00369   0.00121   0.00003   0.34530
           R5           0.00369   0.00003   0.00121   0.00335   0.34530
           A1           0.00903   0.00454  -0.01291  -0.00304   0.00469
           A2           0.00903  -0.01291   0.00454   0.00469  -0.00304
           A3          -0.01806   0.00837   0.00837  -0.00165  -0.00165
           A4           0.00903  -0.00304   0.00469   0.00454  -0.01291
           A5           0.00903   0.00469  -0.00304  -0.01291   0.00454
           A6          -0.01806  -0.00165  -0.00165   0.00837   0.00837
           D1           0.00000   0.00000   0.00000   0.00000   0.00000
           D2           0.00000   0.00000   0.00000   0.00000   0.00000
           D3           0.00000   0.00000   0.00000   0.00000   0.00000
           D4           0.00000   0.00000   0.00000   0.00000   0.00000
                          A1        A2        A3        A4        A5
           A1           0.07311
           A2          -0.03883   0.07311
           A3          -0.03427  -0.03427   0.06855
           A4          -0.01027   0.01161  -0.00134   0.07311
           A5           0.01161  -0.01027  -0.00134  -0.03883   0.07311
           A6          -0.00134  -0.00134   0.00267  -0.03427  -0.03427
           D1           0.00000   0.00000   0.00000   0.00000   0.00000
           D2           0.00000   0.00000   0.00000   0.00000   0.00000
           D3           0.00000   0.00000   0.00000   0.00000   0.00000
           D4           0.00000   0.00000   0.00000   0.00000   0.00000
                          A6        D1        D2        D3        D4
           A6           0.06855
           D1           0.00000  -0.00030
           D2           0.00000   0.00198   0.00390
           D3           0.00000   0.00198   0.00006   0.00390
           D4           0.00000   0.00426   0.00198   0.00198  -0.00030
 ITU=  0
     Eigenvalues ---   -0.00456   0.00385   0.00793   0.08969   0.09761
     Eigenvalues ---    0.10177   0.13079   0.32685   0.34350   0.34379
     Eigenvalues ---    0.34862   0.35188
 Eigenvalue     1 is  -4.56D-03 should be greater than     0.000000 Eigenvector:
                          D4        D1        D3        D2        R1
   1                   -0.70711   0.70711   0.00000   0.00000   0.00000
                          A3        A6        A2        A5        A1
   1                    0.00000   0.00000   0.00000   0.00000   0.00000
 Angle between quadratic step and forces=   2.27 degrees.
 Linear search not attempted -- first point.
 Iteration  1 RMS(Cart)=  0.02658262 RMS(Int)=  0.00000617
 Iteration  2 RMS(Cart)=  0.00000710 RMS(Int)=  0.00000000
 Iteration  3 RMS(Cart)=  0.00000000 RMS(Int)=  0.00000001
 ClnCor:  largest displacement from symmetrization is 1.45D-08 for atom     5.
 Variable       Old X    -DE/DX   Delta X   Delta X   Delta X     New X
                                 (Linear)    (Quad)   (Total)
    R1        2.72998  -0.02434   0.00000  -0.07419  -0.07419   2.65579
    R2        2.06403  -0.00262   0.00000  -0.00681  -0.00681   2.05722
    R3        2.06403  -0.00262   0.00000  -0.00681  -0.00681   2.05722
    R4        2.06403  -0.00262   0.00000  -0.00681  -0.00681   2.05722
    R5        2.06403  -0.00262   0.00000  -0.00681  -0.00681   2.05722
    A1        2.13046  -0.00083   0.00000  -0.00196  -0.00196   2.12850
    A2        2.13046  -0.00083   0.00000  -0.00196  -0.00196   2.12850
    A3        2.02226   0.00167   0.00000   0.00393   0.00393   2.02618
    A4        2.13046  -0.00083   0.00000  -0.00196  -0.00196   2.12850
    A5        2.13046  -0.00083   0.00000  -0.00196  -0.00196   2.12850
    A6        2.02226   0.00167   0.00000   0.00393   0.00393   2.02618
    D1        0.00000   0.00000   0.00000   0.00000   0.00000   0.00000
    D2        3.14159   0.00000   0.00000   0.00000   0.00000   3.14159
    D3        3.14159   0.00000   0.00000   0.00000   0.00000   3.14159
    D4        0.00000   0.00000   0.00000   0.00000   0.00000   0.00000
         Item               Value     Threshold  Converged?
 Maximum Force            0.024335     0.000450     NO 
 RMS     Force            0.006470     0.000300     NO 
 Maximum Displacement     0.044136     0.001800     NO 
 RMS     Displacement     0.026579     0.001200     NO 
 Predicted change in Energy=-9.481781D-04
 GradGradGradGradGradGradGradGradGradGradGradGradGradGradGradGradGradGrad

 1\1\GINC-BUFALO\Freq\UB3LYP\6-31+G(d,p)\C2H4(1-,2)\BETO\09-Apr-2021\0\
 \# B3LYP/6-31+G(d,p) Freq=(FC,ReadFCHT) Geom=Check\\photoionization\\-
 1,2\C,0.7223204967,0.,0.\C,-0.7223204967,0.,0.\H,1.3021956183,0.925598
 4223,0.\H,1.3021956183,-0.9255984223,0.\H,-1.3021956183,0.9255984223,0
 .\H,-1.3021956183,-0.9255984223,0.\\Version=EM64L-G09RevC.01\State=2-B
 2G\HF=-78.5395427\S2=0.752808\S2-1=0.\S2A=0.750004\RMSD=1.370e-10\RMSF
 =6.641e-03\ZeroPoint=0.0441464\Thermal=0.0476603\Dipole=0.,0.,0.\Dipol
 eDeriv=-0.3071704,0.,0.,-0.0000001,-0.1388971,0.,0.,0.,-0.5886916,-0.3
 071704,0.,0.,0.,-0.1388971,0.,0.,0.,-0.5886916,-0.0964148,-0.1089889,0
 .,-0.1166536,-0.1805514,0.,0.,0.,0.0443457,-0.0964147,0.1089889,0.,0.1
 166537,-0.1805514,0.,0.,0.,0.0443457,-0.0964149,0.1089889,0.,0.1166537
 ,-0.1805514,0.,0.,0.,0.0443456,-0.0964148,-0.1089889,0.,-0.1166537,-0.
 1805514,0.,0.,0.,0.0443457\Polar=115.2639226,0.,25.0613827,0.0000022,0
 .,474.7792785\PG=D02H [C2"(C1.C1),SG(H4)]\NImag=1\\0.55085283,0.,0.592
 37450,0.,0.,0.00421969,-0.28051723,0.,0.,0.55085283,0.,-0.09432869,0.,
 0.,0.59237450,0.,0.,0.00434864,0.,0.,0.00421969,-0.12661569,-0.1198552
 0,0.,-0.00855211,-0.02623472,0.,0.13146938,-0.12198974,-0.25104352,0.,
 0.00417260,0.00202062,0.,0.13151504,0.26443803,0.,0.,-0.00025002,0.,0.
 ,-0.00403415,0.,0.,0.00364309,-0.12661569,0.11985519,0.,-0.00855211,0.
 02623472,0.,0.00823020,-0.01336688,0.,0.13146938,0.12198974,-0.2510435
 2,0.,-0.00417260,0.00202062,0.,0.01336688,-0.01818348,0.,-0.13151504,0
 .26443803,0.,0.,-0.00025001,0.,0.,-0.00403415,0.,0.,-0.00218003,0.,0.,
 0.00364309,-0.00855211,0.02623472,0.,-0.12661569,0.11985520,0.,0.00109
 750,-0.00076951,0.,-0.00562928,-0.00043849,0.,0.13146938,-0.00417260,0
 .00202062,0.,0.12198974,-0.25104352,0.,0.00076951,0.00114726,0.,-0.000
 43849,0.00162110,0.,-0.13151504,0.26443803,0.,0.,-0.00403415,0.,0.,-0.
 00025002,0.,0.,-0.00131034,0.,0.,0.00413145,0.,0.,0.00364309,-0.008552
 11,-0.02623472,0.,-0.12661569,-0.11985519,0.,-0.00562928,0.00043849,0.
 ,0.00109750,0.00076951,0.,0.00823020,0.01336688,0.,0.13146938,0.004172
 60,0.00202062,0.,-0.12198974,-0.25104352,0.,0.00043849,0.00162110,0.,-
 0.00076951,0.00114726,0.,-0.01336688,-0.01818348,0.,0.13151504,0.26443
 803,0.,0.,-0.00403415,0.,0.,-0.00025001,0.,0.,0.00413145,0.,0.,-0.0013
 1034,0.,0.,-0.00218003,0.,0.,0.00364309\\0.01950141,0.,0.,-0.01950141,
 0.,0.,0.00241682,0.00157435,0.,0.00241682,-0.00157435,0.,-0.00241682,0
 .00157435,0.,-0.00241682,-0.00157435,0.\\\@


 WHEN HAVING A MEETING OF THE MINDS,
 MAKE SURE YOU HAVE THE EQUIPMENT FOR IT.
 Job cpu time:  0 days  0 hours  0 minutes  7.9 seconds.
 File lengths (MBytes):  RWF=      5 Int=      0 D2E=      0 Chk=      1 Scr=      1
 Normal termination of Gaussian 09 at Fri Apr  9 21:02:14 2021.
